chemcompute.org
{'UTCtimestamp': '2022-10-03T18:11:24.989200', 'cluster': 'jetstream2', 'clusterJobNumber': '120398', 'status': 'RUNNING', 'nodeList': 'chemcompute-node-0'}
----- GAMESS execution script 'rungms' -----
This job is running on host chemcompute-node-0.novalocal
under operating system Linux at Mon Oct 3 18:11:28 UTC 2022
SLURM has assigned the following compute nodes to this run:
Available scratch disk space (Kbyte units) at beginning of the job is
Filesystem     1K-blocks     Used Available Use% Mounted on
/dev/sda1       62903276 11693432  51209844  19% /
GAMESS temporary binary files will be written to /scratch/120398
GAMESS supplementary output files will be written to /data/slurm/45/459915
Copying input file 459915.inp to your run's scratch directory...
The generated host list is
chemcompute-node-0.novalocal

 Distributed Data Interface kickoff program.
 Initiating 1 compute processes on 1 nodes to run the following command:
 /data/gamess-2019R1-avx2-ddi/gamess.00.x 459915 

          ******************************************************
          *         GAMESS VERSION = 30 JUN 2019 (R1)          *
          *             FROM IOWA STATE UNIVERSITY             *
          * M.W.SCHMIDT, K.K.BALDRIDGE, J.A.BOATZ, S.T.ELBERT, *
          *   M.S.GORDON, J.H.JENSEN, S.KOSEKI, N.MATSUNAGA,   *
          *          K.A.NGUYEN, S.J.SU, T.L.WINDUS,           *
          *       TOGETHER WITH M.DUPUIS, J.A.MONTGOMERY       *
          *         J.COMPUT.CHEM.  14, 1347-1363(1993)        *
          **************** 64 BIT INTEL VERSION ****************

  SINCE 1993, STUDENTS AND POSTDOCS WORKING AT IOWA STATE UNIVERSITY
  AND ALSO IN THEIR VARIOUS JOBS AFTER LEAVING ISU HAVE MADE IMPORTANT
  CONTRIBUTIONS TO THE CODE:
     IVANA ADAMOVIC, CHRISTINE AIKENS, YURI ALEXEEV, POOJA ARORA,
     ANDREY ASADCHEV, ROB BELL, PRADIPTA BANDYOPADHYAY, JONATHAN BENTZ,
     COLLEEN BERTONI, BRETT BODE, KURT BRORSEN, CALEB CARLIN, GALINA CHABAN,
     WEI CHEN, CHEOL HO CHOI, PAUL DAY, ALBERT DEFUSCO, NUWAN DESILVA,
     TIM DUDLEY, DMITRI FEDOROV, ALEX FINDLATER, GRAHAM FLETCHER, 
     MARK FREITAG, KURT GLAESEMANN, ANASTASIA GUNINA,
     DAN KEMP, GRANT MERRILL, NORIYUKI MINEZAWA, JONATHAN MULLIN,
     TAKESHI NAGATA, SEAN NEDD, HEATHER NETZLOFF, BOSILJKA NJEGIC, RYAN OLSON,
     MIKE PAK, BUU PHAM,
     SPENCER PRUITT, LUKE ROSKOP, JIM SHOEMAKER, LYUDMILA SLIPCHENKO,
     TONY SMITH, SAROM SOK LEANG, JIE SONG, TETSUYA TAKETSUGU, SIMON WEBB,
     PENG XU, SOOHAENG YOO, FEDERICO ZAHARIEV

  ADDITIONAL CODE HAS BEEN PROVIDED BY COLLABORATORS IN OTHER GROUPS:
     IOWA STATE UNIVERSITY:
          JOE IVANIC, AARON WEST, LAIMUTIS BYTAUTAS, KLAUS RUEDENBERG
     UNIVERSITY OF TOKYO: KIMIHIKO HIRAO, TAKAHITO NAKAJIMA,
          TAKAO TSUNEDA, MUNEAKI KAMIYA, SUSUMU YANAGISAWA,
          KIYOSHI YAGI, MAHITO CHIBA, SEIKEN TOKURA, NAOAKI KAWAKAMI
     UNIVERSITY OF AARHUS: FRANK JENSEN
     UNIVERSITY OF IOWA: VISVALDAS KAIRYS, HUI LI
     NATIONAL INST. OF STANDARDS AND TECHNOLOGY: WALT STEVENS, DAVID GARMER
     UNIVERSITY OF PISA: BENEDETTA MENNUCCI, JACOPO TOMASI
     UNIVERSITY OF MEMPHIS: HENRY KURTZ, PRAKASHAN KORAMBATH
     UNIVERSITY OF ALBERTA: TOBY ZENG, MARIUSZ KLOBUKOWSKI
     UNIVERSITY OF NEW ENGLAND: MARK SPACKMAN
     MIE UNIVERSITY: HIROAKI UMEDA
     NAT. INST. OF ADVANCED INDUSTRIAL SCIENCE AND TECHNOLOGY: KAZUO KITAURA
     MICHIGAN STATE UNIVERSITY:
          KAROL KOWALSKI, MARTA WLOCH, JEFFREY GOUR, JESSE LUTZ,
          WEI LI, JUN SHEN, J. EMILIANO DEUSTUA, PIOTR PIECUCH
     UNIVERSITY OF MINNESOTA:
          YINAN SHU
     UNIVERSITY OF SILESIA: MONIKA MUSIAL, STANISLAW KUCHARSKI
     FACULTES UNIVERSITAIRES NOTRE-DAME DE LA PAIX:
          OLIVIER QUINET, BENOIT CHAMPAGNE
     UNIVERSITY OF CALIFORNIA - SANTA BARBARA: BERNARD KIRTMAN
     INSTITUTE FOR MOLECULAR SCIENCE:
          KAZUYA ISHIMURA, MICHIO KATOUDA, AND SHIGERU NAGASE
     UNIVERSITY OF NOTRE DAME: ANNA POMOGAEVA, DAN CHIPMAN
     KYUSHU UNIVERSITY:
          HARUYUKI NAKANO,
          FENG LONG GU, JACEK KORCHOWIEC, MARCIN MAKOWSKI, AND YURIKO AOKI,
          HIROTOSHI MORI AND EISAKU MIYOSHI
     PENNSYLVANIA STATE UNIVERSITY:
          TZVETELIN IORDANOV, CHET SWALINA, JONATHAN SKONE,
          SHARON HAMMES-SCHIFFER
     WASEDA UNIVERSITY:
          MASATO KOBAYASHI, TOMOKO AKAMA, TSUGUKI TOUMA,
          TAKESHI YOSHIKAWA, YASUHIRO IKABATA, JUNJI SEINO,
          YUYA NAKAJIMA, HIROMI NAKAI
     NANJING UNIVERSITY: SHUHUA LI
     UNIVERSITY OF NEBRASKA:
          PEIFENG SU, DEJUN SI, NANDUN THELLAMUREGE, YALI WANG, HUI LI
     UNIVERSITY OF ZURICH: ROBERTO PEVERATI, KIM BALDRIDGE
     N. COPERNICUS UNIVERSITY AND JACKSON STATE UNIVERSITY:
          MARIA BARYSZ
     UNIVERSITY OF COPENHAGEN: Jimmy Kromann, CASPER STEINMANN
     TOKYO INSTITUTE OF TECHNOLOGY: HIROYA NAKATA
     NAGOYA UNIVERSITY: YOSHIO NISHIMOTO, STEPHAN IRLE
     MOSCOW STATE UNIVERSITY: VLADIMIR MIRONOV
     A.N.NESMEYANOV INSTITUTE OF ORGANOELEMENT COMPOUNDS OF RUSSIAN ACADEMY OF SCIENCES:
          IGOR S. GERASIMOV

 EXECUTION OF GAMESS BEGUN Mon Oct  3 18:11:28 2022

            ECHO OF THE FIRST FEW INPUT CARDS -
 INPUT CARD>!                                                                               
 INPUT CARD>!   GAMESS Calculation input file                                               
 INPUT CARD>!                                                                               
 INPUT CARD>!                                                                               
 INPUT CARD> $CONTRL SCFTYP=RHF MAXIT=200 RUNTYP=OPTIMIZE                                   
 INPUT CARD>         COORD=UNIQUE MULT=1                                                    
 INPUT CARD>         ICHARG=0                                                               
 INPUT CARD>         MOLPLT=.FALSE. PLTORB=.FALSE.  $END                                    
 INPUT CARD> $SYSTEM TIMLIM=2879 MWORDS=250  $END                                           
 INPUT CARD>                                                                                
 INPUT CARD> $FORCE METHOD=SEMINUM NVIB=2 $END                                              
 INPUT CARD> $STATPT OPTTOL=0.0005 NSTEP=999 $END                                           
 INPUT CARD> $STATPT IHREP=0 HSSEND=.TRUE.  $END                                            
 INPUT CARD>                                                                                
 INPUT CARD> $BASIS  GBASIS=N21 NGAUSS=3 $END                                               
 INPUT CARD>                                                                                
 INPUT CARD> $SCF    DIRSCF=.T. $END                                                        
 INPUT CARD> $GUESS  GUESS=HUCKEL  $END                                                     
 INPUT CARD>                                                                                
 INPUT CARD> $DATA                                                                          
 INPUT CARD>                                                                                
 INPUT CARD>  C1                                                                            
 INPUT CARD>C     6.0    -2.05014    -0.00126     0.19654                                   
 INPUT CARD>C     6.0    -0.60419    -0.00075    -0.00757                                   
 INPUT CARD>C     6.0     0.59655     0.00054    -0.09942                                   
 INPUT CARD>C     6.0     2.05530     0.00096    -0.12266                                   
 INPUT CARD>H     1.0    -2.36236     0.88385     0.76189                                   
 INPUT CARD>H     1.0    -2.36190    -0.88665     0.76165                                   
 INPUT CARD>H     1.0    -2.58492    -0.00125    -0.75401                                   
 INPUT CARD>H     1.0     2.44699    -1.01674    -0.07936                                   
 INPUT CARD>H     1.0     2.45472     0.55195     0.73671                                   
 INPUT CARD>H     1.0     2.43698     0.47503    -1.03271                                   
 INPUT CARD> $END                                                                           
 INPUT CARD>                                                                                
 INPUT CARD>                                                                                
 INPUT CARD>! Customizations after this line are persisted when using Do More Calculations  
  250000000 WORDS OF MEMORY AVAILABLE

     BASIS OPTIONS
     -------------
     GBASIS=N21          IGAUSS=       3      POLAR=NONE    
     NDFUNC=       0     NFFUNC=       0     DIFFSP=       F
     NPFUNC=       0      DIFFS=       F     BASNAM=        


     RUN TITLE
     ---------
                                                                                 

 THE POINT GROUP OF THE MOLECULE IS C1      
 THE ORDER OF THE PRINCIPAL AXIS IS     0

 ATOM      ATOMIC                      COORDINATES (BOHR)
           CHARGE         X                   Y                   Z
 C           6.0    -3.8742028365       -0.0023810547        0.3714067456
 C           6.0    -1.1417535445       -0.0014172945       -0.0143052257
 C           6.0     1.1273160380        0.0010204520       -0.1878765577
 C           6.0     3.8839538226        0.0018141369       -0.2317937897
 H           1.0    -4.4642130844        1.6702343142        1.4397633328
 H           1.0    -4.4633438104       -1.6755255470        1.4393097985
 H           1.0    -4.8847905002       -0.0023621575       -1.4248722920
 H           1.0     4.6241405947       -1.9213600008       -0.1499686544
 H           1.0     4.6387481766        1.0430342589        1.3921800324
 H           1.0     4.6052244376        0.8976765359       -1.9515389248

          INTERNUCLEAR DISTANCES (ANGS.)
          ------------------------------

                1 C          2 C          3 C          4 C          5 H     

   1 C       0.0000000    1.4602851 *  2.6631867 *  4.1178309    1.0956832 *
   2 C       1.4602851 *  0.0000000    1.2042486 *  2.6619797 *  2.1132316 *
   3 C       2.6631867 *  1.2042486 *  0.0000000    1.4589352 *  3.2058134  
   4 C       4.1178309    2.6619797 *  1.4589352 *  0.0000000    4.5910395  
   5 H       1.0956832 *  2.1132316 *  3.2058134    4.5910395    0.0000000  
   6 H       1.0956546 *  2.1133061 *  3.2063958    4.5914607    1.7705001 *
   7 H       1.0906580 *  2.1167107 *  3.2481137    4.6829744    1.7694315 *
   8 H       4.6186035    3.2166891    2.1117266 *  1.0913337 *  5.2392548  
   9 H       4.5707317    3.1963042    2.1109150 *  1.0961948 *  4.8285662  
  10 H       4.6767674    3.2443788    2.1173931 *  1.0948119 *  5.1401739  

                6 H          7 H          8 H          9 H         10 H     

   1 C       1.0956546 *  1.0906580 *  4.6186035    4.5707317    4.6767674  
   2 C       2.1133061 *  2.1167107 *  3.2166891    3.1963042    3.2443788  
   3 C       3.2063958    3.2481137    2.1117266 *  2.1109150 *  2.1173931 *
   4 C       4.5914607    4.6829744    1.0913337 *  1.0961948 *  1.0948119 *
   5 H       1.7705001 *  1.7694315 *  5.2392548    4.8285662    5.1401739  
   6 H       0.0000000    1.7694339 *  4.8836098    5.0269295    5.3012404  
   7 H       1.7694339 *  0.0000000    5.1774985    5.2845291    5.0521279  
   8 H       4.8836098    5.1774985    0.0000000    1.7682812 *  1.7704107 *
   9 H       5.0269295    5.2845291    1.7682812 *  0.0000000    1.7711800 *
  10 H       5.3012404    5.0521279    1.7704107 *  1.7711800 *  0.0000000  

  * ... LESS THAN  3.000


     ATOMIC BASIS SET
     ----------------
 THE CONTRACTED PRIMITIVE FUNCTIONS HAVE BEEN UNNORMALIZED
 THE CONTRACTED BASIS FUNCTIONS ARE NOW NORMALIZED TO UNITY

  SHELL TYPE  PRIMITIVE        EXPONENT          CONTRACTION COEFFICIENT(S)

 C         

      1   S       1           172.2560000    0.061766907377
      1   S       2            25.9109000    0.358794042852
      1   S       3             5.5333500    0.700713083689

      2   L       4             3.6649800   -0.395895162119    0.236459946619
      2   L       5             0.7705450    1.215834355681    0.860618805716

      3   L       6             0.1958570    1.000000000000    1.000000000000

 C         

      4   S       7           172.2560000    0.061766907377
      4   S       8            25.9109000    0.358794042852
      4   S       9             5.5333500    0.700713083689

      5   L      10             3.6649800   -0.395895162119    0.236459946619
      5   L      11             0.7705450    1.215834355681    0.860618805716

      6   L      12             0.1958570    1.000000000000    1.000000000000

 C         

      7   S      13           172.2560000    0.061766907377
      7   S      14            25.9109000    0.358794042852
      7   S      15             5.5333500    0.700713083689

      8   L      16             3.6649800   -0.395895162119    0.236459946619
      8   L      17             0.7705450    1.215834355681    0.860618805716

      9   L      18             0.1958570    1.000000000000    1.000000000000

 C         

     10   S      19           172.2560000    0.061766907377
     10   S      20            25.9109000    0.358794042852
     10   S      21             5.5333500    0.700713083689

     11   L      22             3.6649800   -0.395895162119    0.236459946619
     11   L      23             0.7705450    1.215834355681    0.860618805716

     12   L      24             0.1958570    1.000000000000    1.000000000000

 H         

     13   S      25             5.4471780    0.156284978695
     13   S      26             0.8245472    0.904690876670

     14   S      27             0.1831916    1.000000000000

 H         

     15   S      28             5.4471780    0.156284978695
     15   S      29             0.8245472    0.904690876670

     16   S      30             0.1831916    1.000000000000

 H         

     17   S      31             5.4471780    0.156284978695
     17   S      32             0.8245472    0.904690876670

     18   S      33             0.1831916    1.000000000000

 H         

     19   S      34             5.4471780    0.156284978695
     19   S      35             0.8245472    0.904690876670

     20   S      36             0.1831916    1.000000000000

 H         

     21   S      37             5.4471780    0.156284978695
     21   S      38             0.8245472    0.904690876670

     22   S      39             0.1831916    1.000000000000

 H         

     23   S      40             5.4471780    0.156284978695
     23   S      41             0.8245472    0.904690876670

     24   S      42             0.1831916    1.000000000000

 TOTAL NUMBER OF BASIS SET SHELLS             =   24
 NUMBER OF CARTESIAN GAUSSIAN BASIS FUNCTIONS =   48
 NUMBER OF ELECTRONS                          =   30
 CHARGE OF MOLECULE                           =    0
 SPIN MULTIPLICITY                            =    1
 NUMBER OF OCCUPIED ORBITALS (ALPHA)          =   15
 NUMBER OF OCCUPIED ORBITALS (BETA )          =   15
 TOTAL NUMBER OF ATOMS                        =   10
 THE NUCLEAR REPULSION ENERGY IS      100.0507797469

     $CONTRL OPTIONS
     ---------------
 SCFTYP=RHF          RUNTYP=OPTIMIZE     EXETYP=RUN     
 MPLEVL=       0     CITYP =NONE         CCTYP =NONE         VBTYP =NONE    
 DFTTYP=NONE         TDDFT =NONE    
 MULT  =       1     ICHARG=       0     NZVAR =       0     COORD =UNIQUE  
 PP    =NONE         RELWFN=NONE         LOCAL =NONE         NUMGRD=       F
 ISPHER=      -1     NOSYM =       0     MAXIT =     200     UNITS =ANGS    
 PLTORB=       F     MOLPLT=       F     AIMPAC=       F     FRIEND=        
 NPRINT=       7     IREST =       0     GEOM  =INPUT   
 NORMF =       0     NORMP =       0     ITOL  =      20     ICUT  =       9
 INTTYP=BEST         GRDTYP=BEST         QMTTOL= 1.0E-06

     $SYSTEM OPTIONS
     ---------------
  REPLICATED MEMORY=   250000000 WORDS (ON EVERY NODE).
 DISTRIBUTED MEMDDI=           0 MILLION WORDS IN AGGREGATE,
 MEMDDI DISTRIBUTED OVER   1 PROCESSORS IS           0 WORDS/PROCESSOR.
 TOTAL MEMORY REQUESTED ON EACH PROCESSOR=   250000000 WORDS.
 TIMLIM=        2879.00 MINUTES, OR       2.0 DAYS.
 PARALL= F  BALTYP=  DLB     KDIAG=    0  COREFL= F
 MXSEQ2=     300 MXSEQ3=     150  mem10=         0

          ----------------
          PROPERTIES INPUT
          ----------------

     MOMENTS            FIELD           POTENTIAL          DENSITY
 IEMOM =       1   IEFLD =       0   IEPOT =       0   IEDEN =       0
 WHERE =COMASS     WHERE =NUCLEI     WHERE =NUCLEI     WHERE =NUCLEI  
 OUTPUT=BOTH       OUTPUT=BOTH       OUTPUT=BOTH       OUTPUT=BOTH    
 IEMINT=       0   IEFINT=       0                     IEDINT=       0
                                                       MORB  =       0
          EXTRAPOLATION IN EFFECT
          SOSCF IN EFFECT
 ORBITAL PRINTING OPTION: NPREO=     1    48     2     1

     -------------------------------
     INTEGRAL TRANSFORMATION OPTIONS
     -------------------------------
     NWORD  =            0
     CUTOFF = 1.0E-09     MPTRAN =       0
     DIRTRF =       T     AOINTS =DUP     

          ----------------------
          INTEGRAL INPUT OPTIONS
          ----------------------
 NOPK  =       1 NORDER=       0 SCHWRZ=       T

     ------------------------------------------
     THE POINT GROUP IS C1 , NAXIS= 0, ORDER= 1
     ------------------------------------------

     DIMENSIONS OF THE SYMMETRY SUBSPACES ARE
 A   =   48

 ..... DONE SETTING UP THE RUN .....
 STEP CPU TIME =     0.01 TOTAL CPU TIME =          0.0 (      0.0 MIN)
 TOTAL WALL CLOCK TIME=          0.0 SECONDS, CPU UTILIZATION IS    33.33%


          -----------------------------
          STATIONARY POINT LOCATION RUN
          -----------------------------

 OBTAINING INITIAL HESSIAN, HESS=GUESS   
 CARTESIAN COORDINATE OPTIMIZATION USING BADGER'S RULE FORCE CONSTANT GUESS

          PARAMETERS CONTROLLING GEOMETRY SEARCH ARE
          METHOD =QA                  UPHESS =BFGS    
          NNEG   =         0          NFRZ   =         0
          NSTEP  =       999          IFOLOW =         1
          HESS   =GUESS               RESTAR =         F
          IHREP  =         0          HSSEND =         T
          NPRT   =         0          NPUN   =         0
          OPTTOL = 5.000E-04          RMIN   = 1.500E-03
          RMAX   = 1.000E-01          RLIM   = 7.000E-02
          DXMAX  = 3.000E-01          PURIFY =         F
          MOVIE  =         F          TRUPD  =         T
          TRMAX  = 5.000E-01          TRMIN  = 5.000E-02
          ITBMAT =         5          STPT   =         F
          STSTEP = 1.000E-02          PROJCT=          T

 BEGINNING GEOMETRY SEARCH POINT NSERCH=   0 ...

 COORDINATES OF ALL ATOMS ARE (ANGS)
   ATOM   CHARGE       X              Y              Z
 ------------------------------------------------------------
 C           6.0  -2.0501400000  -0.0012600000   0.1965400000
 C           6.0  -0.6041900000  -0.0007500000  -0.0075700000
 C           6.0   0.5965500000   0.0005400000  -0.0994200000
 C           6.0   2.0553000000   0.0009600000  -0.1226600000
 H           1.0  -2.3623600000   0.8838500000   0.7618900000
 H           1.0  -2.3619000000  -0.8866500000   0.7616500000
 H           1.0  -2.5849200000  -0.0012500000  -0.7540100000
 H           1.0   2.4469900000  -1.0167400000  -0.0793600000
 H           1.0   2.4547200000   0.5519500000   0.7367100000
 H           1.0   2.4369800000   0.4750300000  -1.0327100000

          ********************
          1 ELECTRON INTEGRALS
          ********************
 ...... END OF ONE-ELECTRON INTEGRALS ......
 STEP CPU TIME =     0.00 TOTAL CPU TIME =          0.0 (      0.0 MIN)
 TOTAL WALL CLOCK TIME=          0.0 SECONDS, CPU UTILIZATION IS    25.00%

          -------------
          GUESS OPTIONS
          -------------
          GUESS =HUCKEL            NORB  =       0          NORDER=       0
          MIX   =       F          PRTMO =       F          PUNMO =       F
          TOLZ  = 1.0E-08          TOLE  = 1.0E-05
          SYMDEN=       F          PURIFY=       F

 INITIAL GUESS ORBITALS GENERATED BY HUCKEL   ROUTINE.
 HUCKEL GUESS REQUIRES     26718 WORDS.

 SYMMETRIES FOR INITIAL GUESS ORBITALS FOLLOW.   BOTH SET(S).
    15 ORBITALS ARE OCCUPIED (    4 CORE ORBITALS).
     5=A        6=A        7=A        8=A        9=A       10=A       11=A   
    12=A       13=A       14=A       15=A       16=A       17=A       18=A   
    19=A       20=A       21=A       22=A       23=A       24=A       25=A   
 ...... END OF INITIAL ORBITAL SELECTION ......
 STEP CPU TIME =     0.02 TOTAL CPU TIME =          0.0 (      0.0 MIN)
 TOTAL WALL CLOCK TIME=          0.0 SECONDS, CPU UTILIZATION IS    60.00%

                    ----------------------
                    AO INTEGRAL TECHNOLOGY
                    ----------------------
     S,P,L SHELL ROTATED AXIS INTEGRALS, REPROGRAMMED BY
        KAZUYA ISHIMURA (IMS) AND JOSE SIERRA (SYNSTAR).
     S,P,D,L SHELL ROTATED AXIS INTEGRALS PROGRAMMED BY
        KAZUYA ISHIMURA (INSTITUTE FOR MOLECULAR SCIENCE).
     S,P,D,F,G SHELL TO TOTAL QUARTET ANGULAR MOMENTUM SUM 5,
        ERIC PROGRAM BY GRAHAM FLETCHER (ELORET AND NASA ADVANCED
        SUPERCOMPUTING DIVISION, AMES RESEARCH CENTER).
     S,P,D,F,G,L SHELL GENERAL RYS QUADRATURE PROGRAMMED BY
        MICHEL DUPUIS (PACIFIC NORTHWEST NATIONAL LABORATORY).

          --------------------
          2 ELECTRON INTEGRALS
          --------------------

 DIRECT SCF METHOD SKIPS INTEGRAL STORAGE ON DISK.
 DIRECT TRANSFORMATION SKIPS AO INTEGRAL STORAGE ON DISK.
  ...... END OF TWO-ELECTRON INTEGRALS .....
 STEP CPU TIME =     0.00 TOTAL CPU TIME =          0.0 (      0.0 MIN)
 TOTAL WALL CLOCK TIME=          0.1 SECONDS, CPU UTILIZATION IS    50.00%

          --------------------------
                 RHF SCF CALCULATION
          --------------------------

     NUCLEAR ENERGY =       100.0507797469
     MAXIT =  200     NPUNCH=    2
     EXTRAP=T  DAMP=F  SHIFT=F  RSTRCT=F  DIIS=F  DEM=F  SOSCF=T
     DENSITY MATRIX CONV=  2.00E-05
     SOSCF WILL OPTIMIZE     495 ORBITAL ROTATIONS, SOGTOL=   0.250
     MEMORY REQUIRED FOR RHF ITERS=     63736 WORDS.

 DIRECT SCF CALCULATION, SCHWRZ=T   FDIFF=T,  DIRTHR=  0.00E+00 NITDIR=10
 SCHWARZ INEQUALITY OVERHEAD:      1153 INTEGRALS, T=        0.00

                                                                                   NONZERO     BLOCKS
 ITER EX DEM     TOTAL ENERGY        E CHANGE  DENSITY CHANGE     ORB. GRAD      INTEGRALS    SKIPPED
   1  0  0     -153.7844878554  -153.7844878554   0.489985096   0.000000000         572709      11663
          ---------------START SECOND ORDER SCF---------------
   2  1  0     -154.0394922936    -0.2550044381   0.101603810   0.031947128         571606      12226
   3  2  0     -154.0505689574    -0.0110766638   0.066244289   0.010234057         568330      13411
   4  3  0     -154.0520941248    -0.0015251674   0.007216493   0.002089008         566454      13902
   5  4  0     -154.0521297765    -0.0000356517   0.001825857   0.000324180         557655      15693
   6  5  0     -154.0521314818    -0.0000017053   0.000341289   0.000075242         546435      17340
   7  6  0     -154.0521315925    -0.0000001106   0.000160680   0.000037672         527074      19997
   8  7  0     -154.0521316207    -0.0000000282   0.000016677   0.000006575         515043      21324
   9  8  0     -154.0521316213    -0.0000000006   0.000004551   0.000001006         478491      23805

          -----------------
          DENSITY CONVERGED
          -----------------
     TIME TO FORM FOCK OPERATORS=       0.2 SECONDS (       0.0 SEC/ITER)
     FOCK TIME ON FIRST ITERATION=       0.0, LAST ITERATION=       0.0
     TIME TO SOLVE SCF EQUATIONS=       0.0 SECONDS (       0.0 SEC/ITER)

 FINAL RHF ENERGY IS     -154.0521316213 AFTER   9 ITERATIONS

          ------------
          EIGENVECTORS
          ------------

                      1          2          3          4          5
                  -11.1842   -11.1840   -11.1655   -11.1635    -1.0597
                     A          A          A          A          A   
    1  C  1  S    0.986034  -0.057352   0.008845  -0.006100  -0.097177
    2  C  1  S    0.102911  -0.005815  -0.000019   0.000421   0.091661
    3  C  1  X   -0.000388   0.000027  -0.001426   0.001983   0.043618
    4  C  1  Y   -0.000000  -0.000000  -0.000001   0.000002   0.000026
    5  C  1  Z    0.000049  -0.000044   0.000175  -0.000202  -0.005301
    6  C  1  S   -0.098755   0.007022   0.007593   0.012459   0.276837
    7  C  1  X   -0.012924   0.001206   0.007889   0.000684   0.012958
    8  C  1  Y   -0.000003  -0.000001   0.000009  -0.000015  -0.000012
    9  C  1  Z    0.001993   0.000067  -0.001049  -0.001448  -0.002056
   10  C  2  S   -0.010757  -0.001105   0.706744  -0.688242  -0.145927
   11  C  2  S   -0.002794   0.000142   0.062848  -0.071259   0.170674
   12  C  2  X    0.002060   0.000050  -0.002531  -0.005554   0.064285
   13  C  2  Y    0.000001   0.000001   0.000000  -0.000008   0.000100
   14  C  2  Z   -0.000287   0.000022   0.000293   0.000368   0.000052
   15  C  2  S    0.013957   0.022919  -0.028971   0.108283   0.242843
   16  C  2  X   -0.037778   0.012875   0.008136   0.058471   0.020794
   17  C  2  Y   -0.000020   0.000015  -0.000007   0.000065   0.000053
   18  C  2  Z    0.004696  -0.001819  -0.001091  -0.004278  -0.000130
   19  C  3  S   -0.002319  -0.010605   0.687067   0.707884  -0.146322
   20  C  3  S   -0.000181  -0.002808   0.060818   0.073003   0.171135
   21  C  3  X   -0.000289  -0.002075   0.002705  -0.005472  -0.062821
   22  C  3  Y   -0.000000  -0.000002   0.000000  -0.000007  -0.000119
   23  C  3  Z    0.000034   0.000034  -0.000122   0.000471   0.009657
   24  C  3  S    0.024351   0.011325  -0.025923  -0.109027   0.243351
   25  C  3  X   -0.008503   0.039394  -0.009871   0.058216  -0.020537
   26  C  3  Y   -0.000018   0.000029   0.000005   0.000062  -0.000067
   27  C  3  Z   -0.000010  -0.001214   0.000372  -0.004653   0.002955
   28  C  4  S    0.057380   0.986032   0.008725   0.006361  -0.097899
   29  C  4  S    0.006158   0.102899  -0.000008  -0.000430   0.092398
   30  C  4  X    0.000012   0.000392   0.001390   0.002038  -0.044339
   31  C  4  Y   -0.000000   0.000001   0.000001  -0.000001  -0.000253
   32  C  4  Z   -0.000041  -0.000002  -0.000039  -0.000106   0.001759
   33  C  4  S   -0.004472  -0.099029   0.007968  -0.012266   0.278848
   34  C  4  X    0.000344   0.013188  -0.007996   0.000677  -0.013247
   35  C  4  Y    0.000006   0.000007  -0.000008  -0.000006  -0.000038
   36  C  4  Z    0.000268  -0.000128   0.000113   0.001255   0.000176
   37  H  5  S    0.000886  -0.000038  -0.000655   0.000453   0.044927
   38  H  5  S    0.014179  -0.000836   0.002156  -0.001598  -0.005535
   39  H  6  S    0.000886  -0.000039  -0.000653   0.000449   0.044920
   40  H  6  S    0.014180  -0.000836   0.002160  -0.001606  -0.005551
   41  H  7  S    0.000853   0.000024  -0.000634   0.000164   0.044677
   42  H  7  S    0.014382  -0.000715   0.002207  -0.002125  -0.006272
   43  H  8  S    0.000080   0.000839  -0.000637  -0.000387   0.045451
   44  H  8  S    0.000864   0.014316   0.002128   0.001835  -0.005865
   45  H  9  S    0.000049   0.000894  -0.000639  -0.000522   0.045343
   46  H  9  S    0.000775   0.014168   0.002125   0.001554  -0.005478
   47  H 10  S    0.000123   0.000892  -0.000633  -0.000215   0.044653
   48  H 10  S    0.000944   0.014227   0.002126   0.002124  -0.006087

                      6          7          8          9         10
                   -1.0003    -0.9213    -0.6492    -0.5966    -0.5901
                     A          A          A          A          A   
    1  C  1  S   -0.144117  -0.111550  -0.028108   0.007213  -0.000057
    2  C  1  S    0.139988   0.106331   0.012037   0.003427   0.000276
    3  C  1  X    0.026052  -0.030974  -0.242077   0.257553   0.029209
    4  C  1  Y    0.000010  -0.000025   0.000024   0.004640  -0.146039
    5  C  1  Z   -0.003864   0.003072   0.034007  -0.031433   0.202939
    6  C  1  S    0.407225   0.370467   0.294911  -0.100077  -0.001062
    7  C  1  X    0.002190   0.001996  -0.072991   0.150979   0.022942
    8  C  1  Y    0.000030   0.000006  -0.000057   0.003669  -0.119194
    9  C  1  Z    0.000512  -0.000479   0.007729  -0.015546   0.166694
   10  C  2  S   -0.059622   0.096991   0.096165  -0.021069   0.002059
   11  C  2  S    0.069072  -0.109695  -0.111179   0.019985  -0.002213
   12  C  2  X   -0.101505  -0.219243   0.153146  -0.285981   0.010651
   13  C  2  Y   -0.000026  -0.000210   0.000260   0.002692  -0.074959
   14  C  2  Z    0.012145   0.019937  -0.016763   0.036170   0.098807
   15  C  2  S    0.046078  -0.236498   0.066689   0.157603  -0.002539
   16  C  2  X   -0.059030  -0.029204   0.479184  -0.207145   0.007406
   17  C  2  Y   -0.000063  -0.000060   0.000586   0.002089  -0.054141
   18  C  2  Z    0.005960   0.001166  -0.053302   0.025338   0.070189
   19  C  3  S    0.058859   0.096928  -0.096306  -0.020446   0.001096
   20  C  3  S   -0.068219  -0.109604   0.111382   0.019315  -0.001108
   21  C  3  X   -0.103044   0.219842   0.155441   0.287228   0.006166
   22  C  3  Y   -0.000003   0.000158   0.000464   0.003838  -0.077491
   23  C  3  Z    0.003823  -0.013798  -0.008029  -0.008656   0.097642
   24  C  3  S   -0.044597  -0.236919  -0.065111   0.157949  -0.003710
   25  C  3  X   -0.059476   0.029428   0.483303   0.205500   0.009289
   26  C  3  Y   -0.000004   0.000033   0.000633   0.002524  -0.054763
   27  C  3  Z    0.003181  -0.003120  -0.021217  -0.006991   0.069791
   28  C  4  S    0.143736  -0.111389   0.028267   0.007124   0.000348
   29  C  4  S   -0.139651   0.106170  -0.012050   0.003497   0.000282
   30  C  4  X    0.026403   0.030920  -0.246153  -0.257993   0.000466
   31  C  4  Y    0.000431  -0.000442   0.001774   0.009279  -0.161996
   32  C  4  Z   -0.000689  -0.001202   0.001970   0.005213   0.194123
   33  C  4  S   -0.406041   0.369927  -0.296843  -0.098889  -0.005523
   34  C  4  X    0.002117  -0.002119  -0.073827  -0.150944   0.002580
   35  C  4  Y    0.000105  -0.000137   0.001124   0.007445  -0.133061
   36  C  4  Z   -0.001003   0.000014   0.001833   0.005055   0.159241
   37  H  5  S    0.075939   0.069718   0.071939  -0.061774  -0.014680
   38  H  5  S    0.003185   0.016311   0.059083  -0.056268  -0.012756
   39  H  6  S    0.075946   0.069735   0.071846  -0.066763   0.146526
   40  H  6  S    0.003204   0.016326   0.058958  -0.060455   0.123349
   41  H  7  S    0.076602   0.071208   0.073655  -0.070709  -0.130635
   42  H  7  S    0.003387   0.016849   0.059159  -0.062602  -0.108938
   43  H  8  S   -0.076419   0.070570  -0.074401  -0.072177   0.108525
   44  H  8  S   -0.003182   0.016458  -0.060418  -0.064412   0.090434
   45  H  9  S   -0.075686   0.069422  -0.072478  -0.061324   0.048206
   46  H  9  S   -0.003121   0.016205  -0.059637  -0.056059   0.040476
   47  H 10  S   -0.075653   0.070255  -0.072059  -0.064660  -0.157982
   48  H 10  S   -0.003478   0.016743  -0.058440  -0.057953  -0.132478

                     11         12         13         14         15
                   -0.5898    -0.5713    -0.5708    -0.3609    -0.3607
                     A          A          A          A          A   
    1  C  1  S   -0.000192   0.000167  -0.000120   0.000493   0.000307
    2  C  1  S    0.000068   0.000291  -0.000137   0.000823   0.000541
    3  C  1  X    0.014999  -0.030901   0.020950  -0.012734  -0.007964
    4  C  1  Y    0.193333   0.151329   0.231810   0.052179  -0.082383
    5  C  1  Z    0.160730  -0.218605   0.137145  -0.080693  -0.051072
    6  C  1  S    0.001213  -0.003954   0.002729  -0.012318  -0.007789
    7  C  1  X    0.012985  -0.028423   0.019090  -0.019906  -0.012514
    8  C  1  Y    0.157992   0.132027   0.202536   0.060714  -0.095695
    9  C  1  Z    0.131936  -0.190954   0.120002  -0.091540  -0.057907
   10  C  2  S    0.002000  -0.000241   0.000210   0.001559   0.001076
   11  C  2  S   -0.002001  -0.000079  -0.000070  -0.000551  -0.000454
   12  C  2  X    0.017388  -0.006318   0.001720   0.034417   0.021414
   13  C  2  Y    0.097999   0.027032   0.039793  -0.172653   0.273030
   14  C  2  Z    0.075845  -0.032758   0.019668   0.271151   0.171801
   15  C  2  S   -0.008769   0.001296   0.001517  -0.004092  -0.002583
   16  C  2  X    0.010101  -0.005824   0.003720   0.025132   0.015756
   17  C  2  Y    0.070521   0.010243   0.014229  -0.184331   0.291317
   18  C  2  Z    0.053940  -0.008641   0.004356   0.290318   0.183841
   19  C  3  S    0.001956  -0.000164  -0.000415   0.001431   0.000768
   20  C  3  S   -0.002000   0.000461   0.000266  -0.000439  -0.000116
   21  C  3  X   -0.005821   0.004055   0.000394   0.007660   0.004670
   22  C  3  Y    0.099886  -0.019739  -0.033279  -0.173111   0.273149
   23  C  3  Z    0.075480   0.039479  -0.027157   0.272926   0.172581
   24  C  3  S   -0.007556   0.001975  -0.000237  -0.002463  -0.001288
   25  C  3  X   -0.003048  -0.000108   0.004128   0.018533   0.011816
   26  C  3  Y    0.071111  -0.004679  -0.009346  -0.184512   0.291498
   27  C  3  Z    0.054507   0.013948  -0.010503   0.290727   0.184014
   28  C  4  S   -0.000208   0.000147   0.000139   0.000503   0.000305
   29  C  4  S   -0.000000  -0.000139   0.000240   0.000626   0.000518
   30  C  4  X    0.010085  -0.000884  -0.002408   0.000138   0.000055
   31  C  4  Y    0.205134  -0.138438  -0.219818   0.051635  -0.082203
   32  C  4  Z    0.146510   0.231115  -0.151019  -0.082191  -0.052406
   33  C  4  S    0.001913   0.000506  -0.003359  -0.011273  -0.007486
   34  C  4  X    0.007340  -0.000914  -0.000987   0.005242   0.003205
   35  C  4  Y    0.167890  -0.121337  -0.192316   0.059086  -0.095277
   36  C  4  Z    0.119634   0.202060  -0.131846  -0.094689  -0.061056
   37  H  5  S    0.160659   0.012942   0.178149   0.004183  -0.095786
   38  H  5  S    0.135568   0.011334   0.152876   0.004530  -0.117786
   39  H  6  S   -0.052967  -0.159764  -0.086611  -0.084757   0.044771
   40  H  6  S   -0.044918  -0.136986  -0.074548  -0.104339   0.054579
   41  H  7  S   -0.100712   0.145341  -0.091796   0.080906   0.051194
   42  H  7  S   -0.083876   0.123719  -0.078221   0.099569   0.063012
   43  H  8  S   -0.124454   0.097276   0.140320  -0.054497   0.078789
   44  H  8  S   -0.104260   0.082531   0.119739  -0.067128   0.096179
   45  H  9  S    0.151678   0.078353  -0.162411  -0.040721  -0.087024
   46  H  9  S    0.128313   0.067173  -0.139554  -0.050192  -0.106814
   47  H 10  S   -0.020020  -0.178160   0.020852   0.095810   0.008364
   48  H 10  S   -0.016917  -0.152596   0.018046   0.118479   0.010166

                     16         17         18         19         20
                    0.2285     0.2294     0.2927     0.2964     0.3445
                     A          A          A          A          A   
    1  C  1  S   -0.013973   0.004815   0.122823  -0.117108  -0.001093
    2  C  1  S    0.004922  -0.001654  -0.037882   0.030381   0.000034
    3  C  1  X    0.025088  -0.008662   0.049236  -0.082001  -0.013895
    4  C  1  Y    0.019411   0.057632   0.000813   0.001063  -0.202024
    5  C  1  Z    0.050531  -0.017861   0.003644   0.016419  -0.082001
    6  C  1  S    0.206123  -0.071621  -1.702783   1.646332   0.018244
    7  C  1  X    0.113019  -0.039733   0.280737  -0.396668  -0.065277
    8  C  1  Y    0.131032   0.388335   0.004181   0.005478  -0.947367
    9  C  1  Z    0.355729  -0.125380   0.026352   0.074610  -0.389708
   10  C  2  S    0.010695  -0.003663  -0.030235  -0.002094  -0.000550
   11  C  2  S   -0.007502   0.002558   0.003992   0.048711   0.001621
   12  C  2  X    0.023489  -0.008462   0.019740   0.044032   0.002541
   13  C  2  Y    0.088506   0.256261   0.000822   0.000915   0.023884
   14  C  2  Z    0.254824  -0.089377   0.016040  -0.004741   0.005633
   15  C  2  S    0.029136  -0.011170   0.241840  -0.102162  -0.000591
   16  C  2  X    0.221329  -0.078075  -0.148439   0.071425   0.004592
   17  C  2  Y    0.189219   0.542971   0.001905   0.001831   0.149459
   18  C  2  Z    0.522554  -0.181965   0.045502  -0.015438   0.055162
   19  C  3  S   -0.010484   0.003711   0.030135  -0.002376   0.000269
   20  C  3  S    0.007944  -0.002903  -0.003278   0.048699   0.001275
   21  C  3  X   -0.016834   0.005962   0.016650  -0.044211  -0.001496
   22  C  3  Y   -0.088799  -0.255973  -0.001186  -0.001324   0.018799
   23  C  3  Z   -0.255817   0.089202  -0.018318   0.005057   0.012275
   24  C  3  S   -0.033114   0.011670  -0.242605  -0.099125  -0.005667
   25  C  3  X    0.137027  -0.047959  -0.154084  -0.072134  -0.003519
   26  C  3  Y   -0.188509  -0.543972  -0.003467  -0.003742   0.138517
   27  C  3  Z   -0.549255   0.191289  -0.019924   0.002090   0.064797
   28  C  4  S    0.012992  -0.003866  -0.124297  -0.115604  -0.001831
   29  C  4  S   -0.004423   0.001165   0.038308   0.029935   0.000228
   30  C  4  X    0.016626  -0.006627   0.049333   0.082781  -0.000146
   31  C  4  Y   -0.020092  -0.055136   0.001391   0.001853  -0.199749
   32  C  4  Z   -0.056471   0.019163  -0.014232   0.003528  -0.084075
   33  C  4  S   -0.196015   0.062573   1.723263   1.625627   0.032202
   34  C  4  X    0.056422  -0.021759   0.279177   0.399393  -0.000826
   35  C  4  Y   -0.136030  -0.378379   0.003685   0.005671  -0.944392
   36  C  4  Z   -0.378585   0.129904  -0.080470   0.017003  -0.391781
   37  H  5  S   -0.077288  -0.066846  -0.003075  -0.003350   0.041960
   38  H  5  S   -0.522334  -0.408313   0.710182  -0.804840   1.182821
   39  H  6  S   -0.019404   0.100803  -0.002229  -0.002384  -0.024962
   40  H  6  S   -0.162751   0.648387   0.719667  -0.792461  -0.738555
   41  H  7  S    0.095113  -0.033397   0.009936  -0.002094  -0.016994
   42  H  7  S    0.536899  -0.188961   0.849928  -0.777059  -0.474325
   43  H  8  S   -0.028728  -0.097857  -0.001177  -0.002539  -0.038509
   44  H  8  S   -0.142209  -0.618446  -0.765142  -0.779996  -1.100200
   45  H  9  S    0.099663   0.023505   0.006057  -0.003840   0.034513
   46  H  9  S    0.664694   0.136724  -0.685803  -0.803424   0.970324
   47  H 10  S   -0.069515   0.074197  -0.009734  -0.001407   0.004604
   48  H 10  S   -0.387760   0.446566  -0.859418  -0.761892   0.092577

                     21         22         23         24         25
                    0.3455     0.3941     0.4051     0.4178     0.4777
                     A          A          A          A          A   
    1  C  1  S    0.002655  -0.035207  -0.002742  -0.051147   0.073059
    2  C  1  S   -0.000105  -0.000606  -0.000025  -0.001603   0.009651
    3  C  1  X    0.031245   0.109102   0.009234   0.163607  -0.112454
    4  C  1  Y   -0.083035   0.005498  -0.228154   0.007921  -0.000276
    5  C  1  Z    0.198605  -0.194255  -0.000449   0.121904   0.013899
    6  C  1  S   -0.046633   0.835089   0.061801   1.141205  -1.335524
    7  C  1  X    0.144282   0.877428   0.071902   1.326990  -1.503509
    8  C  1  Y   -0.386653   0.025933  -1.000655   0.032732  -0.001432
    9  C  1  Z    0.940557  -0.944625  -0.006095   0.431721   0.222507
   10  C  2  S   -0.000025   0.079309   0.005699   0.098642  -0.064792
   11  C  2  S   -0.002434  -0.069693  -0.004668  -0.082491  -0.061901
   12  C  2  X   -0.005873   0.029538   0.001486   0.017141  -0.298246
   13  C  2  Y    0.010712  -0.004164   0.188857  -0.007223   0.000068
   14  C  2  Z   -0.020589   0.128776   0.000375  -0.136462   0.038322
   15  C  2  S    0.004258   0.130827   0.000054  -0.012241   1.918432
   16  C  2  X   -0.027408   1.574130   0.102156   1.738472  -1.223125
   17  C  2  Y    0.058131  -0.020078   0.760943  -0.023654   0.000860
   18  C  2  Z   -0.139872   0.367433  -0.015772  -0.744659   0.151475
   19  C  3  S    0.000756  -0.078658  -0.005570  -0.098560  -0.065577
   20  C  3  S   -0.002965   0.070502   0.004728   0.082156  -0.060974
   21  C  3  X    0.002763   0.006130   0.001361   0.037475   0.300557
   22  C  3  Y    0.008143   0.004876  -0.189652   0.006550  -0.000029
   23  C  3  Z   -0.024982  -0.131631  -0.000033   0.131257  -0.009962
   24  C  3  S    0.006367  -0.145177  -0.003067   0.017130   1.909334
   25  C  3  X   -0.009513   1.489791   0.102672   1.834814   1.265438
   26  C  3  Y    0.062644   0.024207  -0.762779   0.026512  -0.000618
   27  C  3  Z   -0.147998  -0.603808  -0.001347   0.468337  -0.051685
   28  C  4  S    0.000765   0.034381   0.002956   0.051171   0.073650
   29  C  4  S    0.000084   0.000684   0.000031   0.001685   0.010149
   30  C  4  X    0.000145   0.136075   0.008284   0.142678   0.113975
   31  C  4  Y   -0.084523  -0.007000   0.229266  -0.008086   0.000238
   32  C  4  Z    0.201476   0.174694   0.002058  -0.145178  -0.001897
   33  C  4  S   -0.008711  -0.821586  -0.070134  -1.148778  -1.358194
   34  C  4  X    0.003679   1.002735   0.066850   1.244487   1.537838
   35  C  4  Y   -0.403273  -0.035914   1.012433  -0.034076  -0.000723
   36  C  4  Z    0.944659   0.790460   0.004370  -0.627506  -0.005180
   37  H  5  S   -0.005806   0.010393  -0.025691   0.042090  -0.054717
   38  H  5  S   -0.146791   0.552872   0.917468  -0.217336  -0.098475
   39  H  6  S   -0.033364   0.008863   0.028352   0.040008  -0.054546
   40  H  6  S   -0.932650   0.598300  -0.903456  -0.157469  -0.100107
   41  H  7  S    0.038692   0.034317   0.001511  -0.003899  -0.054099
   42  H  7  S    1.136354  -0.704911   0.014021   0.784735  -0.103395
   43  H  8  S   -0.017584  -0.015579  -0.033943  -0.026795  -0.054970
   44  H  8  S   -0.514505  -0.226172   1.060433  -0.143784  -0.103437
   45  H  9  S   -0.023372  -0.004452   0.014685  -0.051094  -0.054538
   46  H  9  S   -0.672356  -0.841437  -0.584030   0.422619  -0.106113
   47  H 10  S    0.041567  -0.031727   0.014603  -0.000782  -0.054899
   48  H 10  S    1.206014   0.618085  -0.491329  -0.684585  -0.095155

                     26         27         28         29         30
                    0.7024     0.8969     0.9386     0.9405     1.0252
                     A          A          A          A          A   
    1  C  1  S   -0.018569   0.011437   0.000367  -0.004885   0.000478
    2  C  1  S   -0.172535  -0.099459  -0.001938   0.025082  -0.003507
    3  C  1  X   -0.407983  -0.597981  -0.007899   0.118126   0.009460
    4  C  1  Y   -0.000167  -0.001679  -0.347403  -0.031832   0.426021
    5  C  1  Z    0.054287  -0.000399   0.031899  -0.361188   0.157595
    6  C  1  S    2.880799   0.665633   0.010458  -0.120496   0.009452
    7  C  1  X    2.049755   1.172210   0.013999  -0.200729  -0.034982
    8  C  1  Y   -0.000455   0.002711   0.619345   0.057005  -0.912173
    9  C  1  Z   -0.367371  -0.028806  -0.057448   0.651831  -0.340262
   10  C  2  S   -0.103816  -0.012676  -0.000281   0.002886  -0.000818
   11  C  2  S   -0.077367  -0.341644  -0.005876   0.082323  -0.002816
   12  C  2  X    0.165988  -0.323253   0.001061   0.008181   0.016224
   13  C  2  Y   -0.000012  -0.001276  -0.530587  -0.047473   0.387031
   14  C  2  Z   -0.015108  -0.093345   0.047828  -0.521665   0.148556
   15  C  2  S    6.129576  -0.741943  -0.002942   0.137863   0.032161
   16  C  2  X    6.718813   1.040596   0.017509  -0.180748   0.026838
   17  C  2  Y    0.006340   0.001351   0.295878   0.025769   0.015046
   18  C  2  Z   -0.661964  -0.040913  -0.028617   0.304390   0.000753
   19  C  3  S    0.103899  -0.012850  -0.000192   0.002676   0.000686
   20  C  3  S    0.077993  -0.342381  -0.005751   0.081509   0.003598
   21  C  3  X    0.165737   0.303733   0.007535  -0.088432  -0.005338
   22  C  3  Y    0.000120  -0.001497  -0.532956  -0.047226  -0.383187
   23  C  3  Z   -0.011790  -0.139305   0.047240  -0.510923  -0.143041
   24  C  3  S   -6.123863  -0.745259  -0.016126   0.156796  -0.030581
   25  C  3  X    6.744761  -1.029839  -0.007175   0.202106   0.027980
   26  C  3  Y    0.007183  -0.000580   0.291605   0.026382  -0.018607
   27  C  3  Z   -0.370679   0.123656  -0.026020   0.276737  -0.012638
   28  C  4  S    0.018444   0.011384   0.000689  -0.004997  -0.000125
   29  C  4  S    0.172957  -0.100097  -0.000634   0.023914   0.004183
   30  C  4  X   -0.412011   0.591575   0.013205  -0.169458  -0.013992
   31  C  4  Y    0.000409  -0.001252  -0.350660  -0.031497  -0.422712
   32  C  4  Z    0.009513  -0.089165   0.030365  -0.335448  -0.166515
   33  C  4  S   -2.889001   0.667306  -0.001419  -0.107454  -0.015602
   34  C  4  X    2.082808  -1.161708  -0.021328   0.290481   0.017318
   35  C  4  Y   -0.002634   0.004293   0.632724   0.055645   0.913941
   36  C  4  Z    0.040450   0.142203  -0.054910   0.600628   0.354429
   37  H  5  S    0.056554   0.050683  -0.264692  -0.210948   0.396035
   38  H  5  S    0.033180   0.061277  -0.034309  -0.049050   0.134953
   39  H  6  S    0.056823   0.053067   0.297077  -0.159593  -0.256519
   40  H  6  S    0.032132   0.061110   0.041758  -0.041882  -0.082720
   41  H  7  S    0.076202   0.179219  -0.026285   0.287796  -0.140323
   42  H  7  S   -0.028757   0.062646  -0.002921   0.029663  -0.049065
   43  H  8  S   -0.062634   0.092556   0.330239  -0.010846   0.369033
   44  H  8  S   -0.014781   0.062190   0.052838  -0.020165   0.128246
   45  H  9  S   -0.053057   0.024839  -0.149901  -0.306906  -0.323670
   46  H  9  S   -0.043964   0.061810  -0.019518  -0.060847  -0.110147
   47  H 10  S   -0.072822   0.164465  -0.172530   0.236862  -0.042269
   48  H 10  S    0.023428   0.059202  -0.024890   0.017666  -0.018529

                     31         32         33         34         35
                    1.0260     1.0811     1.0826     1.2344     1.2437
                     A          A          A          A          A   
    1  C  1  S   -0.001250  -0.000418  -0.000654   0.015041  -0.002991
    2  C  1  S    0.009045   0.004515   0.007430  -0.022939   0.004489
    3  C  1  X   -0.025565  -0.008905  -0.016727   0.184009  -0.029129
    4  C  1  Y    0.166299  -0.368176   0.215849  -0.070895  -0.572212
    5  C  1  Z   -0.422975  -0.217252  -0.360171   0.523038  -0.079010
    6  C  1  S   -0.019713   0.036602   0.057201   0.492192  -0.072531
    7  C  1  X    0.096560   0.076906   0.128542  -0.002009  -0.000229
    8  C  1  Y   -0.356010   0.815804  -0.479198   0.160138   1.273966
    9  C  1  Z    0.913628   0.482189   0.801093  -1.238818   0.181770
   10  C  2  S    0.001904   0.001765   0.003131  -0.018362   0.003010
   11  C  2  S    0.008709  -0.013418  -0.024158   0.120046  -0.022885
   12  C  2  X   -0.040838   0.012537   0.021664  -0.190135   0.030393
   13  C  2  Y    0.143134   0.450454  -0.273465   0.074625   0.578831
   14  C  2  Z   -0.379489   0.262994   0.452597  -0.537599   0.075470
   15  C  2  S   -0.059021  -0.017134  -0.048802   1.190828  -0.147783
   16  C  2  X   -0.055071   0.024455   0.025977   1.484996  -0.209805
   17  C  2  Y    0.010750  -0.534328   0.320922  -0.167117  -1.302384
   18  C  2  Z   -0.016036  -0.319524  -0.541787   1.096176  -0.154202
   19  C  3  S   -0.001771   0.001813   0.003108   0.018492  -0.001770
   20  C  3  S   -0.006560  -0.013226  -0.024690  -0.122697   0.008676
   21  C  3  X    0.016867   0.028117   0.047263  -0.108139   0.008736
   22  C  3  Y   -0.151931   0.451549  -0.261329  -0.077876  -0.582015
   23  C  3  Z    0.389629   0.272917   0.446684   0.557772  -0.075580
   24  C  3  S    0.065519  -0.031533  -0.040587  -1.186248   0.169181
   25  C  3  X   -0.045034  -0.056338  -0.119388   1.304985  -0.164609
   26  C  3  Y   -0.001009  -0.536457   0.316080   0.175166   1.306770
   27  C  3  Z    0.016471  -0.318496  -0.529592  -1.306857   0.177500
   28  C  4  S    0.001423  -0.000206  -0.001139  -0.016185   0.000515
   29  C  4  S   -0.006649   0.004754   0.006038   0.024853  -0.000895
   30  C  4  X    0.034281  -0.022755  -0.038128   0.105201  -0.008334
   31  C  4  Y   -0.155964  -0.364554   0.218667   0.086735   0.576030
   32  C  4  Z    0.424022  -0.214837  -0.364673  -0.543949   0.061603
   33  C  4  S    0.007285   0.027531   0.068820  -0.496337   0.062096
   34  C  4  X   -0.038710   0.000298  -0.004177   0.189786  -0.024803
   35  C  4  Y    0.341763   0.815525  -0.496808  -0.183088  -1.282528
   36  C  4  Z   -0.913025   0.474292   0.818181   1.218485  -0.151421
   37  H  5  S   -0.060365  -0.302202   0.006204   0.058180   0.096923
   38  H  5  S   -0.027468  -0.116562  -0.001448   0.200113  -0.625165
   39  H  6  S   -0.313775   0.149681  -0.256967   0.036058  -0.115278
   40  H  6  S   -0.111888   0.054303  -0.102444   0.341631   0.544748
   41  H  7  S    0.375782   0.161418   0.265787   0.197496  -0.038934
   42  H  7  S    0.130868   0.060737   0.101916  -0.674464   0.106484
   43  H  8  S    0.155882   0.257035  -0.169001  -0.075942   0.126767
   44  H  8  S    0.061705   0.097733  -0.070439  -0.082740  -0.678011
   45  H  9  S    0.240721  -0.263719  -0.132287  -0.030168  -0.066805
   46  H  9  S    0.085356  -0.101319  -0.052704  -0.427355   0.424390
   47  H 10  S   -0.398657   0.016624   0.312407  -0.206108  -0.048312
   48  H 10  S   -0.134374   0.002904   0.117026   0.653889   0.249083

                     36         37         38         39         40
                    1.2707     1.2773     1.3226     1.3234     1.3577
                     A          A          A          A          A   
    1  C  1  S    0.065754  -0.066635  -0.002296   0.003110  -0.000304
    2  C  1  S   -0.099667   0.103144   0.007102  -0.010339  -0.003053
    3  C  1  X    0.203647  -0.262609   0.066390  -0.087349  -0.062734
    4  C  1  Y    0.006101   0.018253   0.474851   0.388139  -0.298588
    5  C  1  Z   -0.230513   0.007088   0.333815  -0.458511  -0.156564
    6  C  1  S    0.818472  -0.416121   0.041450  -0.062678  -0.058651
    7  C  1  X    0.336597  -0.059000  -0.053137   0.063752   0.015949
    8  C  1  Y   -0.010910  -0.035186  -0.545715  -0.445065  -0.023893
    9  C  1  Z    0.334391   0.085503  -0.418990   0.562491   0.041409
   10  C  2  S   -0.031766   0.029479   0.001048  -0.001802  -0.003355
   11  C  2  S    0.343442  -0.379179  -0.021033   0.031174   0.051431
   12  C  2  X   -0.381460   0.298721  -0.007367   0.015631   0.007604
   13  C  2  Y   -0.002838  -0.011821   0.051571   0.042984  -0.370105
   14  C  2  Z    0.202364  -0.012832   0.009896  -0.025282  -0.155475
   15  C  2  S    1.406393   0.663836  -0.019143  -0.017334   0.019841
   16  C  2  X    2.031048  -0.616532   0.068975  -0.121898  -0.036581
   17  C  2  Y    0.009671   0.029163  -0.036793  -0.033764   0.805175
   18  C  2  Z   -0.579610   0.024360   0.028794  -0.008759   0.335146
   19  C  3  S    0.030581   0.030583   0.001177  -0.002908  -0.001711
   20  C  3  S   -0.326870  -0.391015  -0.016004   0.045263   0.055440
   21  C  3  X   -0.397947  -0.311417   0.019230  -0.000976   0.007620
   22  C  3  Y    0.004812   0.014103   0.024409   0.012701   0.372537
   23  C  3  Z   -0.143136   0.015717   0.044369  -0.044026   0.153522
   24  C  3  S   -1.424846   0.617018  -0.039184   0.055129  -0.016863
   25  C  3  X    2.079495   0.686183  -0.062922   0.014720   0.051827
   26  C  3  Y   -0.008240  -0.030484   0.022328   0.026327  -0.804793
   27  C  3  Z    0.264190  -0.035098  -0.036813   0.021693  -0.339920
   28  C  4  S   -0.063051  -0.069185  -0.000848   0.004677   0.005214
   29  C  4  S    0.094777   0.106964   0.006147  -0.008866  -0.008038
   30  C  4  X    0.226036   0.268445  -0.014446   0.010048   0.018313
   31  C  4  Y    0.003175  -0.001332   0.466849   0.336374   0.345135
   32  C  4  Z    0.186193  -0.025911   0.386895  -0.481372   0.104213
   33  C  4  S   -0.807870  -0.445455   0.039473  -0.029180  -0.045835
   34  C  4  X    0.281309   0.081387  -0.013748   0.002989   0.000695
   35  C  4  Y   -0.000113   0.014758  -0.563520  -0.410264  -0.029269
   36  C  4  Z   -0.372007   0.049282  -0.442265   0.562959   0.036719
   37  H  5  S    0.437845  -0.435219  -0.616215  -0.113615   0.622772
   38  H  5  S   -0.309516   0.224591   0.936595   0.169265  -0.649424
   39  H  6  S    0.443847  -0.419573   0.264796   0.608069  -0.377775
   40  H  6  S   -0.323915   0.181942  -0.394889  -0.920515   0.375309
   41  H  7  S    0.300310  -0.415943   0.332000  -0.463547  -0.289597
   42  H  7  S    0.074224   0.245390  -0.536102   0.736836   0.322025
   43  H  8  S   -0.370682  -0.426911   0.461223   0.380792   0.631905
   44  H  8  S    0.176907   0.216869  -0.718209  -0.571997  -0.654697
   45  H  9  S   -0.449855  -0.444986  -0.606209   0.261834  -0.504797
   46  H  9  S    0.386375   0.206535   0.928452  -0.370039   0.536186
   47  H 10  S   -0.309740  -0.443516   0.148320  -0.588615  -0.071411
   48  H 10  S   -0.031735   0.250019  -0.212368   0.929319   0.111582

                     41         42         43         44         45
                    1.3610     1.3624     1.4193     1.6345     1.6729
                     A          A          A          A          A   
    1  C  1  S   -0.034444   0.007107   0.011260   0.054714  -0.072804
    2  C  1  S    0.094333  -0.012581   0.121268  -0.603766   0.568069
    3  C  1  X    0.457857   0.068731  -0.547578   0.015360   0.268040
    4  C  1  Y   -0.019681  -0.102624  -0.000257   0.000120   0.000229
    5  C  1  Z   -0.055407   0.338058   0.085622  -0.009712  -0.054133
    6  C  1  S    0.797695  -0.011078  -0.710128  -0.537092   2.293177
    7  C  1  X   -0.088907  -0.029775   0.498537  -1.123407   1.547379
    8  C  1  Y   -0.006160  -0.037766  -0.001455  -0.001241  -0.001688
    9  C  1  Z   -0.078524  -0.021187  -0.031590   0.224266  -0.219228
   10  C  2  S    0.036805   0.000548   0.048586   0.010927  -0.066826
   11  C  2  S   -0.819518   0.025662   0.146586  -0.554209   0.546792
   12  C  2  X   -0.193614   0.034845  -0.750863   0.512587  -0.099652
   13  C  2  Y   -0.028110  -0.153674  -0.002587  -0.000280  -0.000138
   14  C  2  Z   -0.000871   0.373987   0.068480  -0.054275   0.079284
   15  C  2  S   -0.006791  -0.060769  -2.375070   2.128567   5.979638
   16  C  2  X    1.120268  -0.153258  -1.071354  -2.043063   7.416987
   17  C  2  Y    0.062689   0.338746   0.003428   0.001045   0.007666
   18  C  2  Z   -0.074121  -0.801337   0.062788   0.212597  -0.922805
   19  C  3  S    0.037973  -0.003628  -0.047806   0.010764   0.066619
   20  C  3  S   -0.817324   0.040161  -0.161561  -0.552350  -0.546503
   21  C  3  X    0.203502  -0.027910  -0.750683  -0.512083  -0.113282
   22  C  3  Y    0.028859   0.157230   0.001809   0.000196   0.000236
   23  C  3  Z   -0.039208  -0.370343   0.046902   0.026848  -0.062245
   24  C  3  S   -0.068628   0.042144   2.376791   2.142724  -5.958677
   25  C  3  X   -1.080064   0.024330  -1.084882   2.035022   7.491811
   26  C  3  Y   -0.063183  -0.338335  -0.006413  -0.000806   0.006809
   27  C  3  Z    0.112094   0.810495   0.101058  -0.112251  -0.221309
   28  C  4  S   -0.034170  -0.003421  -0.011872   0.054340   0.072978
   29  C  4  S    0.096382   0.007994  -0.120385  -0.602483  -0.571682
   30  C  4  X   -0.449636   0.038523  -0.563489  -0.017144   0.274303
   31  C  4  Y    0.026523   0.161029   0.006253   0.002403   0.002906
   32  C  4  Z    0.008540  -0.296105  -0.001725  -0.010366   0.009286
   33  C  4  S    0.778593  -0.034886   0.724408  -0.534782  -2.308116
   34  C  4  X    0.068283  -0.036736   0.500956   1.141678   1.571910
   35  C  4  Y   -0.000870  -0.031755  -0.004429  -0.002014  -0.004411
   36  C  4  Z   -0.084204  -0.026517  -0.041294   0.051771  -0.029504
   37  H  5  S    0.062344  -0.083438  -0.132183   0.231274  -0.271734
   38  H  5  S   -0.154892   0.124816   0.312628  -0.486866   0.397090
   39  H  6  S   -0.009795  -0.462004  -0.134321   0.230950  -0.272991
   40  H  6  S   -0.084585   0.490327   0.313712  -0.487215   0.396592
   41  H  7  S   -0.072469   0.666942  -0.087510   0.274713  -0.281182
   42  H  7  S   -0.092484  -0.688926   0.300652  -0.485151   0.408233
   43  H  8  S    0.044479   0.272824   0.128914   0.245724   0.278031
   44  H  8  S   -0.158498  -0.300676  -0.324829  -0.490153  -0.407381
   45  H  9  S    0.028565   0.301252   0.140561   0.220600   0.274182
   46  H  9  S   -0.105042  -0.300190  -0.316571  -0.488161  -0.396321
   47  H 10  S   -0.099262  -0.669716   0.084960   0.266112   0.275615
   48  H 10  S   -0.050933   0.692817  -0.294163  -0.476706  -0.404097

                     46         47         48
                    2.2892     2.3329     2.4519
                     A          A          A   
    1  C  1  S   -0.075324  -0.082686  -0.063311
    2  C  1  S   -1.383299  -1.425147  -0.492166
    3  C  1  X    0.085195   0.101487   0.422375
    4  C  1  Y    0.000019   0.000068   0.000367
    5  C  1  Z   -0.019035  -0.005393  -0.063406
    6  C  1  S    4.725815   4.809837   6.340490
    7  C  1  X    1.239097   1.267256   2.184841
    8  C  1  Y    0.000105   0.000478  -0.002736
    9  C  1  Z   -0.144393  -0.244418  -0.458953
   10  C  2  S   -0.001460   0.013202  -0.041770
   11  C  2  S    0.656350   0.256336  -1.118830
   12  C  2  X    0.022199  -0.332704  -0.670544
   13  C  2  Y    0.000240  -0.000148  -0.000627
   14  C  2  Z    0.022899   0.036362   0.093380
   15  C  2  S    0.819407  -3.019886  14.756464
   16  C  2  X    3.918730   2.691611  14.348318
   17  C  2  Y    0.002689   0.000471   0.014261
   18  C  2  Z   -0.555364  -0.296702  -1.475220
   19  C  3  S    0.001729   0.013346   0.041541
   20  C  3  S   -0.651457   0.275716   1.116990
   21  C  3  X    0.024187   0.330370  -0.680558
   22  C  3  Y    0.000006   0.000281  -0.000666
   23  C  3  Z   -0.025545  -0.015464   0.010503
   24  C  3  S   -0.865438  -3.076481 -14.714173
   25  C  3  X    3.914614  -2.723317  14.441778
   26  C  3  Y    0.004081  -0.000882   0.014325
   27  C  3  Z   -0.049875   0.128062  -0.731904
   28  C  4  S    0.073810  -0.083860   0.063753
   29  C  4  S    1.355559  -1.448556   0.499378
   30  C  4  X    0.085718  -0.101136   0.428595
   31  C  4  Y    0.001623  -0.001409   0.001000
   32  C  4  Z    0.005149   0.011539  -0.003496
   33  C  4  S   -4.643987   4.879429  -6.390880
   34  C  4  X    1.226855  -1.308562   2.246200
   35  C  4  Y   -0.001890   0.000520  -0.002880
   36  C  4  Z   -0.055665  -0.042900   0.097693
   37  H  5  S   -0.303986  -0.304543  -0.203795
   38  H  5  S   -0.355015  -0.354664  -0.134191
   39  H  6  S   -0.304130  -0.304490  -0.205095
   40  H  6  S   -0.355090  -0.354750  -0.135512
   41  H  7  S   -0.288542  -0.325762  -0.253976
   42  H  7  S   -0.350692  -0.383246  -0.171742
   43  H  8  S    0.292434  -0.314263   0.219959
   44  H  8  S    0.348197  -0.371701   0.149197
   45  H  9  S    0.302579  -0.304994   0.199132
   46  H  9  S    0.351392  -0.354433   0.130216
   47  H 10  S    0.284646  -0.330182   0.249325
   48  H 10  S    0.338588  -0.382206   0.166707
 ...... END OF RHF CALCULATION ......
 STEP CPU TIME =     0.21 TOTAL CPU TIME =          0.2 (      0.0 MIN)
 TOTAL WALL CLOCK TIME=          0.3 SECONDS, CPU UTILIZATION IS    77.42%

     ----------------------------------------------------------------
     PROPERTY VALUES FOR THE RHF   SELF-CONSISTENT FIELD WAVEFUNCTION
     ----------------------------------------------------------------

          -----------------
          ENERGY COMPONENTS
          -----------------

         WAVEFUNCTION NORMALIZATION =       1.0000000000

                ONE ELECTRON ENERGY =    -404.2700397649
                TWO ELECTRON ENERGY =     150.1671283967
           NUCLEAR REPULSION ENERGY =     100.0507797469
                                      ------------------
                       TOTAL ENERGY =    -154.0521316213

 ELECTRON-ELECTRON POTENTIAL ENERGY =     150.1671283967
  NUCLEUS-ELECTRON POTENTIAL ENERGY =    -557.8032339741
   NUCLEUS-NUCLEUS POTENTIAL ENERGY =     100.0507797469
                                      ------------------
             TOTAL POTENTIAL ENERGY =    -307.5853258305
               TOTAL KINETIC ENERGY =     153.5331942092
                 VIRIAL RATIO (V/T) =       2.0033799688

          ---------------------------------------
          MULLIKEN AND LOWDIN POPULATION ANALYSES
          ---------------------------------------

     ATOMIC MULLIKEN POPULATION IN EACH MOLECULAR ORBITAL

                      1          2          3          4          5

                  2.000000   2.000000   2.000000   2.000000   2.000000

    1             1.973544   0.006641   0.002255  -0.001029   0.371797
    2             0.010910   0.000268   1.025107   0.973424   0.593371
    3             0.000188   0.011045   0.970132   1.028407   0.595577
    4             0.006718   1.973416   0.002242  -0.001010   0.377133
    5             0.002850   0.000010   0.000045   0.000030   0.010467
    6             0.002850   0.000010   0.000045   0.000030   0.010454
    7             0.002909   0.000008   0.000046   0.000040   0.009908
    8             0.000010   0.002893   0.000043   0.000036   0.010554
    9             0.000009   0.002846   0.000044   0.000030   0.010729
   10             0.000011   0.002864   0.000043   0.000041   0.010010

                      6          7          8          9         10

                  2.000000   2.000000   2.000000   2.000000   2.000000

    1             0.704746   0.411908   0.388025   0.430600   0.509095
    2             0.175583   0.461996   0.447540   0.446408   0.145639
    3             0.174747   0.462730   0.451807   0.441099   0.146235
    4             0.700535   0.410445   0.393421   0.426008   0.514243
    5             0.040599   0.041630   0.052309   0.037387   0.001938
    6             0.040619   0.041656   0.052164   0.043359   0.189649
    7             0.041345   0.043415   0.053994   0.047768   0.149469
    8             0.041000   0.042483   0.055340   0.049902   0.102959
    9             0.040300   0.041264   0.053191   0.036927   0.020461
   10             0.040527   0.042472   0.052210   0.040542   0.220312

                     11         12         13         14         15

                  2.000000   2.000000   2.000000   2.000000   2.000000

    1             0.509733   0.573972   0.585351   0.049523   0.050162
    2             0.146919   0.013867   0.015045   0.846000   0.845470
    3             0.147445   0.014856   0.013903   0.845644   0.844878
    4             0.510966   0.582287   0.570130   0.049727   0.050493
    5             0.228308   0.001455   0.275438   0.000119   0.069628
    6             0.024823   0.221646   0.065138   0.054627   0.015082
    7             0.088668   0.181813   0.072519   0.049357   0.019752
    8             0.135760   0.081357   0.169515   0.022485   0.046574
    9             0.203851   0.053271   0.229191   0.012635   0.057440
   10             0.003528   0.275473   0.003771   0.069884   0.000521

               ----- POPULATIONS IN EACH AO -----
                             MULLIKEN      LOWDIN
              1  C  1  S      1.98856     1.97597
              2  C  1  S      0.35371     0.40302
              3  C  1  X      0.52062     0.49576
              4  C  1  Y      0.55704     0.52143
              5  C  1  Z      0.55774     0.52210
              6  C  1  S      1.17262     0.56606
              7  C  1  X      0.26182     0.53916
              8  C  1  Y      0.58088     0.60836
              9  C  1  Z      0.57334     0.60607
             10  C  2  S      1.98690     1.97819
             11  C  2  S      0.42247     0.41427
             12  C  2  X      0.66544     0.63227
             13  C  2  Y      0.45529     0.43861
             14  C  2  Z      0.45685     0.44001
             15  C  2  S      0.52171     0.52407
             16  C  2  X      0.53678     0.51623
             17  C  2  Y      0.55088     0.57711
             18  C  2  Z      0.55122     0.57741
             19  C  3  S      1.98690     1.97820
             20  C  3  S      0.42264     0.41435
             21  C  3  X      0.66578     0.63248
             22  C  3  Y      0.45583     0.43914
             23  C  3  Z      0.45647     0.43973
             24  C  3  S      0.52243     0.52378
             25  C  3  X      0.53764     0.51709
             26  C  3  Y      0.55113     0.57736
             27  C  3  Z      0.54987     0.57603
             28  C  4  S      1.98856     1.97597
             29  C  4  S      0.35376     0.40299
             30  C  4  X      0.51989     0.49523
             31  C  4  Y      0.55881     0.52300
             32  C  4  Z      0.55724     0.52162
             33  C  4  S      1.17291     0.56585
             34  C  4  X      0.25367     0.53769
             35  C  4  Y      0.58034     0.60735
             36  C  4  Z      0.58157     0.60836
             37  H  5  S      0.46040     0.46380
             38  H  5  S      0.30182     0.42392
             39  H  6  S      0.46039     0.46379
             40  H  6  S      0.30176     0.42389
             41  H  7  S      0.46283     0.46594
             42  H  7  S      0.29818     0.42255
             43  H  8  S      0.46248     0.46556
             44  H  8  S      0.29843     0.42233
             45  H  9  S      0.46010     0.46360
             46  H  9  S      0.30209     0.42394
             47  H 10  S      0.46077     0.46420
             48  H 10  S      0.30144     0.42415

          ----- MULLIKEN ATOMIC OVERLAP POPULATIONS -----
          (OFF-DIAGONAL ELEMENTS NEED TO BE MULTIPLIED BY 2)

             1           2           3           4           5

    1    5.3364457
    2    0.0871553   5.3265760
    3   -0.0401477   0.9725456   5.3290578
    4    0.0013361  -0.0405414   0.0860128   5.3379509
    5    0.3947231  -0.0611730  -0.0059276  -0.0000308   0.4833448
    6    0.3947263  -0.0611317  -0.0059198  -0.0000311  -0.0244209
    7    0.3921754  -0.0591541  -0.0048391  -0.0000299  -0.0243103
    8   -0.0000304  -0.0055646  -0.0607470   0.3941820  -0.0000019
    9   -0.0000309  -0.0061684  -0.0618190   0.3954269   0.0000084
   10   -0.0000301  -0.0049972  -0.0595228   0.3924776  -0.0000000

             6           7           8           9          10

    6    0.4832075
    7   -0.0242839   0.4814503
    8    0.0000070  -0.0000000   0.4816742
    9   -0.0000000  -0.0000016  -0.0244724   0.4835769
   10   -0.0000015   0.0000040  -0.0241362  -0.0243295   0.4827442

          TOTAL MULLIKEN AND LOWDIN ATOMIC POPULATIONS
       ATOM         MULL.POP.    CHARGE          LOW.POP.     CHARGE
    1 C             6.566323   -0.566323         6.237941   -0.237941
    2 C             6.147546   -0.147546         6.098167   -0.098167
    3 C             6.148693   -0.148693         6.098157   -0.098157
    4 C             6.566753   -0.566753         6.238058   -0.238058
    5 H             0.762212    0.237788         0.887722    0.112278
    6 H             0.762152    0.237848         0.887684    0.112316
    7 H             0.761011    0.238989         0.888490    0.111510
    8 H             0.760911    0.239089         0.887888    0.112112
    9 H             0.762190    0.237810         0.887542    0.112458
   10 H             0.762208    0.237792         0.888350    0.111650

          -------------------------------
          BOND ORDER AND VALENCE ANALYSIS     BOND ORDER THRESHOLD=0.050
          -------------------------------

                   BOND                       BOND                       BOND
  ATOM PAIR DIST  ORDER      ATOM PAIR DIST  ORDER      ATOM PAIR DIST  ORDER
    1   2  1.460  0.804        1   5  1.096  0.912        1   6  1.096  0.912
    1   7  1.091  0.913        2   3  1.204  3.352        3   4  1.459  0.803
    4   8  1.091  0.912        4   9  1.096  0.912        4  10  1.095  0.913

                       TOTAL       BONDED        FREE
      ATOM            VALENCE     VALENCE     VALENCE
    1 C                 3.592       3.592       0.000
    2 C                 4.180       4.180       0.000
    3 C                 4.179       4.179       0.000
    4 C                 3.592       3.592       0.000
    5 H                 0.900       0.900       0.000
    6 H                 0.900       0.900       0.000
    7 H                 0.899       0.899      -0.000
    8 H                 0.899       0.899       0.000
    9 H                 0.900       0.900       0.000
   10 H                 0.900       0.900      -0.000

          ---------------------
          ELECTROSTATIC MOMENTS
          ---------------------

 POINT   1           X           Y           Z (BOHR)    CHARGE
                -0.000001    0.000004   -0.000002        0.00 (A.U.)
         DX          DY          DZ         /D/  (DEBYE)
     0.016156   -0.000676    0.218931    0.219527
 ...... END OF PROPERTY EVALUATION ......
 STEP CPU TIME =     0.01 TOTAL CPU TIME =          0.2 (      0.0 MIN)
 TOTAL WALL CLOCK TIME=          0.3 SECONDS, CPU UTILIZATION IS    75.76%

 BEGINNING ONE ELECTRON GRADIENT...
 ..... END OF 1-ELECTRON GRADIENT ......
 STEP CPU TIME =     0.00 TOTAL CPU TIME =          0.2 (      0.0 MIN)
 TOTAL WALL CLOCK TIME=          0.3 SECONDS, CPU UTILIZATION IS    71.43%

          ----------------------
          GRADIENT OF THE ENERGY
          ----------------------
 THE COARSE/FINE SCHWARZ SCREENINGS SKIPPED        12334/        5148 BLOCKS.
 THE NUMBER OF GRADIENT INTEGRAL BLOCKS COMPUTED WAS     27548
 ...... END OF 2-ELECTRON GRADIENT ......
 STEP CPU TIME =     0.04 TOTAL CPU TIME =          0.3 (      0.0 MIN)
 TOTAL WALL CLOCK TIME=          0.4 SECONDS, CPU UTILIZATION IS    76.32%

          NSERCH=  0     ENERGY=    -154.0521316

                                 -----------------------
                                 GRADIENT (HARTREE/BOHR)
                                 -----------------------
        ATOM     ZNUC       DE/DX         DE/DY         DE/DZ
 --------------------------------------------------------------
    1  C            6.0     0.0118246    -0.0000081    -0.0019164
    2  C            6.0    -0.0394889    -0.0001147    -0.0002368
    3  C            6.0     0.0399136     0.0001828    -0.0058439
    4  C            6.0    -0.0127679    -0.0027788     0.0022133
    5  H            1.0    -0.0027847     0.0057064     0.0041785
    6  H            1.0    -0.0027903    -0.0056887     0.0041780
    7  H            1.0    -0.0023539     0.0000044    -0.0036279
    8  H            1.0     0.0022154    -0.0042208     0.0006488
    9  H            1.0     0.0035723     0.0036538     0.0059981
   10  H            1.0     0.0026596     0.0032637    -0.0055916

          MAXIMUM GRADIENT = 0.0399136    RMS GRADIENT = 0.0112163

 NSERCH:   0  E=     -154.0521316213  GRAD. MAX=  0.0399136  R.M.S.=  0.0112163

          FORCE CONSTANT MATRIX NOT UPDATED --- TAKING FIRST STEP
          MIN SEARCH, CORRECT HESSIAN, TRYING PURE NR STEP
               NR STEP HAS LENGTH         =   7.020262
          TRIM/QA LAMBDA FOR NON-TS MODES =  -0.01129667
          TRIM/QA STEP HAS LENGTH         =   0.300000
          RADIUS OF STEP TAKEN=   0.30000  CURRENT TRUST RADIUS=   0.30000

 BEGINNING GEOMETRY SEARCH POINT NSERCH=   1 ...

 COORDINATES OF ALL ATOMS ARE (ANGS)
   ATOM   CHARGE       X              Y              Z
 ------------------------------------------------------------
 C           6.0  -2.0546011888  -0.0009686838   0.1866161157
 C           6.0  -0.5849330237   0.0014336450   0.0851728593
 C           6.0   0.5909005614  -0.0027487073  -0.0157611424
 C           6.0   2.0581653620   0.0039797200  -0.1358187060
 H           1.0  -2.3751048416   0.8805125432   0.7372240348
 H           1.0  -2.3733215617  -0.8834933598   0.7365423965
 H           1.0  -2.5376854768  -0.0012418544  -0.7844769674
 H           1.0   2.4374560581  -1.0136343284  -0.1035927145
 H           1.0   2.4730250030   0.5490884432   0.7099367986
 H           1.0   2.3931291081   0.4727525822  -1.0547826748

          INTERNUCLEAR DISTANCES (ANGS.)
          ------------------------------

                1 C          2 C          3 C          4 C          5 H     

   1 C       0.0000000    1.4731670 *  2.6532318 *  4.1253894    1.0876124 *
   2 C       1.4731670 *  0.0000000    1.1801652 *  2.6523222 *  2.0982530 *
   3 C       2.6532318 *  1.1801652 *  0.0000000    1.4721838 *  3.1850157  
   4 C       4.1253894    2.6523222 *  1.4721838 *  0.0000000    4.6026512  
   5 H       1.0876124 *  2.0982530 *  3.1850157    4.6026512    0.0000000  
   6 H       1.0875897 *  2.0989787 *  3.1824966    4.6029011    1.7640069 *
   7 H       1.0846162 *  2.1376483 *  3.2216420    4.6414039    1.7662098 *
   8 H       4.6139236    3.1938740    2.1069816 *  1.0864798 *  5.2398003  
   9 H       4.5908416    3.1688110    2.0913044 *  1.0883724 *  4.8595215  
  10 H       4.6419595    3.2234290    2.1339388 *  1.0846398 *  5.1101479  

                6 H          7 H          8 H          9 H         10 H     

   1 C       1.0875897 *  1.0846162 *  4.6139236    4.5908416    4.6419595  
   2 C       2.0989787 *  2.1376483 *  3.1938740    3.1688110    3.2234290  
   3 C       3.1824966    3.2216420    2.1069816 *  2.0913044 *  2.1339388 *
   4 C       4.6029011    4.6414039    1.0864798 *  1.0883724 *  1.0846398 *
   5 H       1.7640069 *  1.7662098 *  5.2398003    4.8595215    5.1101479  
   6 H       0.0000000    1.7660360 *  4.8853193    5.0537188    5.2694687  
   7 H       1.7660360 *  0.0000000    5.1225555    5.2576949    4.9609141  
   8 H       4.8853193    5.1225555    0.0000000    1.7621572 *  1.7652403 *
   9 H       5.0537188    5.2576949    1.7621572 *  0.0000000    1.7681757 *
  10 H       5.2694687    4.9609141    1.7652403 *  1.7681757 *  0.0000000  

  * ... LESS THAN  3.000

 ...... END OF ONE-ELECTRON INTEGRALS ......
 STEP CPU TIME =     0.00 TOTAL CPU TIME =          0.3 (      0.0 MIN)
 TOTAL WALL CLOCK TIME=          0.4 SECONDS, CPU UTILIZATION IS    74.36%
  ...... END OF TWO-ELECTRON INTEGRALS .....
 STEP CPU TIME =     0.00 TOTAL CPU TIME =          0.3 (      0.0 MIN)
 TOTAL WALL CLOCK TIME=          0.4 SECONDS, CPU UTILIZATION IS    72.50%

          --------------------------
                 RHF SCF CALCULATION
          --------------------------
     DENSITY MATRIX CONV=  1.00E-04

 DIRECT SCF CALCULATION, SCHWRZ=T   FDIFF=T,  DIRTHR=  0.00E+00 NITDIR=10

                                                                                   NONZERO     BLOCKS
 ITER EX DEM     TOTAL ENERGY        E CHANGE  DENSITY CHANGE     ORB. GRAD      INTEGRALS    SKIPPED
          ---------------START SECOND ORDER SCF---------------
   1  0  0     -154.0488750150  -154.0488750150   0.053214773   0.013472129         575815      11586
   2  1  0     -154.0526340535    -0.0037590385   0.019029815   0.003909924         570317      13631
   3  2  0     -154.0529036735    -0.0002696200   0.001922246   0.000370497         566269      14584
   4  3  0     -154.0529088305    -0.0000051569   0.000985227   0.000113314         554155      16509
   5  4  0     -154.0529091781    -0.0000003477   0.000289065   0.000035928         542653      18341
   6  5  0     -154.0529091983    -0.0000000202   0.000044104   0.000026041         524044      20655
   7  6  0     -154.0529092062    -0.0000000079   0.000041254   0.000007178         498549      22562

          -----------------
          DENSITY CONVERGED
          -----------------
     TIME TO FORM FOCK OPERATORS=       0.2 SECONDS (       0.0 SEC/ITER)
     FOCK TIME ON FIRST ITERATION=       0.0, LAST ITERATION=       0.0
     TIME TO SOLVE SCF EQUATIONS=       0.0 SECONDS (       0.0 SEC/ITER)

 FINAL RHF ENERGY IS     -154.0529092062 AFTER   7 ITERATIONS
 ...... END OF RHF CALCULATION ......
 STEP CPU TIME =     0.17 TOTAL CPU TIME =          0.5 (      0.0 MIN)
 TOTAL WALL CLOCK TIME=          0.6 SECONDS, CPU UTILIZATION IS    77.97%
 ..... END OF 1-ELECTRON GRADIENT ......
 STEP CPU TIME =     0.00 TOTAL CPU TIME =          0.5 (      0.0 MIN)
 TOTAL WALL CLOCK TIME=          0.6 SECONDS, CPU UTILIZATION IS    76.67%
 ...... END OF 2-ELECTRON GRADIENT ......
 STEP CPU TIME =     0.03 TOTAL CPU TIME =          0.5 (      0.0 MIN)
 TOTAL WALL CLOCK TIME=          0.6 SECONDS, CPU UTILIZATION IS    77.78%

          NSERCH=  1     ENERGY=    -154.0529092

                                 -----------------------
                                 GRADIENT (HARTREE/BOHR)
                                 -----------------------
        ATOM     ZNUC       DE/DX         DE/DY         DE/DZ
 --------------------------------------------------------------
    1  C            6.0    -0.0042209    -0.0003419    -0.0084999
    2  C            6.0     0.0256764     0.0009457     0.0044731
    3  C            6.0    -0.0243216    -0.0015063     0.0053542
    4  C            6.0     0.0025206     0.0014537    -0.0080448
    5  H            1.0     0.0020026     0.0022697     0.0015829
    6  H            1.0     0.0018079    -0.0022225     0.0015534
    7  H            1.0    -0.0032620    -0.0000227     0.0000784
    8  H            1.0    -0.0005454    -0.0017931     0.0006973
    9  H            1.0    -0.0022716     0.0011728     0.0034027
   10  H            1.0     0.0026141     0.0000446    -0.0005974

          MAXIMUM GRADIENT = 0.0256764    RMS GRADIENT = 0.0071374

 NSERCH:   1  E=     -154.0529092062  GRAD. MAX=  0.0256764  R.M.S.=  0.0071374

          HESSIAN UPDATED USING THE BFGS FORMULA
             ACTUAL ENERGY CHANGE WAS  -0.0007775849
          PREDICTED ENERGY CHANGE WAS  -0.0023413657 RATIO=  0.332
          MIN SEARCH, CORRECT HESSIAN, TRYING PURE NR STEP
               NR STEP HAS LENGTH         =   1.578128
          TRIM/QA LAMBDA FOR NON-TS MODES =  -0.00157577
          TRIM/QA STEP HAS LENGTH         =   0.300000
          RADIUS OF STEP TAKEN=   0.30000  CURRENT TRUST RADIUS=   0.30000

 BEGINNING GEOMETRY SEARCH POINT NSERCH=   2 ...

 COORDINATES OF ALL ATOMS ARE (ANGS)
   ATOM   CHARGE       X              Y              Z
 ------------------------------------------------------------
 C           6.0  -2.0545781608  -0.0053405344   0.1990676069
 C           6.0  -0.5915576772  -0.0270245458   0.0683605362
 C           6.0   0.5982505711   0.0412020750   0.0626071219
 C           6.0   2.0616838612   0.0038053593  -0.1131590964
 H           1.0  -2.3978384009   0.8807187964   0.7204016935
 H           1.0  -2.4116422253  -0.8847116187   0.7240817816
 H           1.0  -2.5016069741  -0.0030563111  -0.7971354771
 H           1.0   2.4315368113  -1.0166156927  -0.1271100192
 H           1.0   2.5563210296   0.5496296325   0.6879063000
 H           1.0   2.3364611650   0.4670728396  -1.0639604475

          INTERNUCLEAR DISTANCES (ANGS.)
          ------------------------------

                1 C          2 C          3 C          4 C          5 H     

   1 C       0.0000000    1.4690076 *  2.6567439 *  4.1280967    1.0838441 *
   2 C       1.4690076 *  0.0000000    1.1917767 *  2.6596223 *  2.1241012 *
   3 C       2.6567439 *  1.1917767 *  0.0000000    1.4744251 *  3.1802565  
   4 C       4.1280967    2.6596223 *  1.4744251 *  0.0000000    4.6207293  
   5 H       1.0838441 *  2.1241012 *  3.1802565    4.6207293    0.0000000  
   6 H       1.0846327 *  2.1162007 *  3.2178129    4.6369258    1.7654882 *
   7 H       1.0919068 *  2.0971281 *  3.2171778    4.6142707    1.7591889 *
   8 H       4.6102383    3.1869421    2.1250669 *  1.0854699 *  5.2574727  
   9 H       4.6698337    3.2596790    2.1174366 *  1.0882536 *  4.9653169  
  10 H       4.5934345    3.1779832    2.1146859 *  1.0927683 *  5.0762825  

[...]
                   Y -0.02492822  0.13925523  0.06047996 -0.16320408  0.07153258
                   Z  0.11919045  0.03363804 -0.14526637 -0.06111790 -0.04987217

 TRANS. SAYVETZ    X  2.26588052  1.23314107  0.00066305  0.00008548 -0.00016743
                   Y -2.20668169  6.98785056  0.00131361 -0.00356252 -0.00000739
                   Z  6.62269172  1.89413453 -0.00155807 -0.00066861  0.00015366
               TOTAL  7.33918961  7.34427926  0.00214308  0.00362572  0.00022738

   ROT. SAYVETZ    X  0.14480900 -0.00762867  0.00737186 -0.00124217  0.00282841
                   Y  1.10580584  0.42982704 -0.00873310  0.00453757 -0.00396795
                   Z  0.52028948  0.69734567 -0.01110259 -0.00009801  0.00323264
               TOTAL  1.23064103  0.81920722  0.01593357  0.00470555  0.00584761

                           11          12          13          14          15
       FREQUENCY:       569.50      736.92     1182.17     1197.71     1197.76  
        SYMMETRY:         A           A           A           A           A   
    REDUCED MASS:      3.48876     3.95348     6.56302     1.38161     1.38125
    IR INTENSITY:      0.00002     0.00000     0.27078     0.10871     0.10911

  1   C            X -0.00039170 -0.18190501 -0.12355167 -0.00167239  0.00730374
                   Y -0.00515105 -0.00011645  0.00007895 -0.09122394 -0.01600531
                   Z -0.00550366  0.01421569  0.00953419 -0.01605504  0.09227258
  2   C            X  0.00997071 -0.02439796  0.15167839  0.00213789 -0.00461682
                   Y  0.12553230 -0.00014874  0.00010995  0.05607682  0.01836723
                   Z  0.12819610  0.00201211 -0.01177323  0.01839748 -0.05710287
  3   C            X -0.00984181  0.02438777  0.15168167 -0.00197303 -0.00391023
                   Y -0.12575542  0.00001588 -0.00041873  0.05006581 -0.03323532
                   Z -0.12796988 -0.00211559 -0.01174900 -0.03388321 -0.04892586
  4   C            X  0.00030299  0.18191286 -0.12355482  0.00272147  0.00659841
                   Y  0.00545578  0.00019546  0.00067385 -0.08457466  0.04070335
                   Z  0.00520684 -0.01415102  0.00954408  0.04151393  0.08329455
  5   H            X -0.22855781 -0.17489556 -0.11171032  0.38983678 -0.16632803
                   Y -0.06774802  0.00149336  0.00262224  0.09834718  0.07667621
                   Z -0.05295454  0.01462816  0.01080183 -0.05654139 -0.17799014
  6   H            X  0.05267293 -0.17529131 -0.11073625 -0.31917563 -0.28200764
                   Y -0.07083815 -0.00167365 -0.00314920  0.12205092 -0.04015282
                   Z -0.07822051  0.01452500  0.01049611  0.11468949 -0.14631338
  7   H            X  0.15947302 -0.17520647 -0.11252977 -0.06745875  0.41461991
                   Y -0.07217179  0.00001248 -0.00045722  0.21005350  0.03750984
                   Z -0.08246211  0.01181170  0.00546185  0.01734538 -0.11069562
  8   H            X  0.15917419  0.17534451 -0.11554174  0.38560831 -0.17786545
                   Y  0.06867138 -0.00158994  0.00258541  0.06993253 -0.03846281
                   Z  0.06180128 -0.01337497  0.00886418 -0.12137190 -0.18146359
  9   H            X -0.22164958  0.17493562 -0.10996138 -0.06175809  0.41214557
                   Y  0.06855305  0.00128871 -0.00350263  0.18738793 -0.02120057
                   Z  0.08662326 -0.01200127  0.00623978 -0.10277007 -0.10962710
 10   H            X  0.07843718  0.17512704 -0.10942379 -0.34154789 -0.26454417
                   Y  0.07236731  0.00105812 -0.00333635  0.14173529 -0.13142983
                   Z  0.06606267 -0.01519095  0.01114810  0.02989247 -0.10202998

 TRANS. SAYVETZ    X  0.00002862 -0.00001424 -0.00010237 -0.00004149  0.00002078
                   Y -0.00019607 -0.00005239  0.00004952  0.00012654 -0.00001664
                   Z  0.00000957 -0.00006496  0.00009917 -0.00000725 -0.00013893
               TOTAL  0.00019838  0.00008466  0.00015088  0.00013337  0.00014146

   ROT. SAYVETZ    X -0.00163194 -0.00001100 -0.00011524 -0.00034555 -0.00169735
                   Y  0.00153415 -0.00041351  0.00012555 -0.00139902  0.00019422
                   Z  0.00591140 -0.00058135 -0.00049259 -0.00085636 -0.00080069
               TOTAL  0.00632151  0.00071350  0.00052124  0.00167631  0.00188675

                           16          17          18          19          20
       FREQUENCY:      1213.42     1213.53     1583.17     1589.54     1658.80  
        SYMMETRY:         A           A           A           A           A   
    REDUCED MASS:      1.48725     1.48619     1.18265     1.18450     1.03757
    IR INTENSITY:      0.00787     0.00838     0.00007     0.00000     0.33083

  1   C            X -0.00277098 -0.00608449 -0.08120271  0.08256168 -0.00216666
                   Y -0.08087383  0.04403025 -0.00019146  0.00020155 -0.02755662
                   Z -0.04350747 -0.07933697  0.00635360 -0.00644302 -0.02968879
  2   C            X  0.00168427  0.00553067 -0.00417429 -0.00003479 -0.00099348
                   Y  0.07385059 -0.03085842  0.00001132 -0.00001175 -0.01125353
                   Z  0.03058397  0.07282938  0.00034891 -0.00002004 -0.01288904
  3   C            X -0.00021830 -0.00638358 -0.00417522  0.00006501 -0.00026738
                   Y -0.07912088 -0.00491060 -0.00004507 -0.00004384 -0.00753709
                   Z  0.00417770 -0.07922829  0.00028697 -0.00002972 -0.00385291
  4   C            X -0.00068771  0.00717427 -0.08208678 -0.08167665 -0.00092539
                   Y  0.08954215  0.01518223 -0.00016922 -0.00016395 -0.02050227
                   Z -0.01403132  0.09000521  0.00638739  0.00635789 -0.01327205
  5   H            X  0.40821186  0.01711777  0.34433491 -0.34762113 -0.30357611
                   Y  0.06674961 -0.10651105  0.12797202 -0.12959447 -0.20307207
                   Z -0.00210662  0.18251057  0.04615159 -0.04689711  0.10796805
  6   H            X -0.19863475  0.35741645  0.34482444 -0.34806020  0.11060010
                   Y  0.12310765  0.00072659 -0.12768119  0.12928426  0.25995341
                   Z  0.15529104  0.09965436  0.04771936 -0.04850017  0.50484847
  7   H            X -0.19333053 -0.34473460  0.32696495 -0.32997401  0.22921316
                   Y  0.18978386 -0.10115275  0.00190238 -0.00194810  0.39938950
                   Z  0.05181294  0.08939524 -0.17352741  0.17568545 -0.12019046
  8   H            X -0.39505565 -0.07028963  0.34131113  0.33713291 -0.14295439
                   Y -0.07101947 -0.02037094  0.14951718  0.14821096 -0.05984209
                   Z  0.05582049 -0.20702034 -0.03311503 -0.03277568  0.21895201
  9   H            X  0.16361219  0.36649908  0.33332419  0.32924904  0.16487009
                   Y -0.17711894  0.03567495 -0.07938548 -0.07866291  0.08368732
                   Z  0.06874728 -0.13116199 -0.15211673 -0.15072593 -0.15687284
 10   H            X  0.23890610 -0.32887088  0.35256247  0.34837864 -0.00633043
                   Y -0.17195436 -0.08738672 -0.06763003 -0.06705956  0.31586048
                   Z -0.05842607 -0.08418451  0.10565745  0.10484093  0.15616956

 TRANS. SAYVETZ    X -0.00001781 -0.00004170 -0.00035694  0.00000293 -0.00000704
                   Y  0.00000820  0.00011826 -0.00000159  0.00001607  0.00001085
                   Z -0.00006459  0.00002769  0.00004560  0.00002150  0.00000399
               TOTAL  0.00006750  0.00012842  0.00035985  0.00002700  0.00001353

   ROT. SAYVETZ    X  0.00086927  0.00197389 -0.00006374  0.00018028 -0.00007174
                   Y  0.00024773 -0.00368849  0.00039802 -0.00019913  0.00016760
                   Z  0.00217357 -0.00118387 -0.00104936  0.00250442 -0.00016178
               TOTAL  0.00235402  0.00434773  0.00112412  0.00251878  0.00024373

                           21          22          23          24          25
       FREQUENCY:      1658.97     1659.73     1659.93     2565.87     3199.08  
        SYMMETRY:         A           A           A           A           A   
    REDUCED MASS:      1.03778     1.04036     1.04044    11.67858     1.03283
    IR INTENSITY:      0.32273     0.02891     0.03179     0.00000     0.44953

  1   C            X  0.00168024  0.00094592 -0.00237482  0.02222228 -0.04660808
                   Y -0.01157678  0.01944373  0.03110713  0.00000767  0.00239231
                   Z  0.02024278  0.01354880 -0.02744524 -0.00173783  0.00463061
  2   C            X  0.00054547  0.00065348 -0.00113974 -0.20202687 -0.00135600
                   Y -0.00309698  0.01105048  0.01529709 -0.00018189  0.00001380
                   Z  0.00724211  0.00857880 -0.01402586  0.01580775  0.00011346
  3   C            X  0.00087726 -0.00122350  0.00079383  0.20202763  0.00099563
                   Y -0.01352401 -0.01342056 -0.00848347  0.00020734  0.00000752
                   Z  0.01106094 -0.01561584  0.01042607 -0.01579349 -0.00007497
  4   C            X  0.00223631 -0.00227010  0.00147907 -0.02222238  0.00055146
                   Y -0.03125246 -0.02587969 -0.01320235 -0.00003808 -0.00000764
                   Z  0.02699732 -0.03140669  0.01830356  0.00171940 -0.00003923
  5   H            X -0.02270934  0.19195333  0.14542499  0.02026776  0.17351879
                   Y  0.16854319  0.08532368 -0.24665955  0.00257291 -0.48145740
                   Z -0.29080396  0.00141562  0.50738357 -0.00008921 -0.29291521
  6   H            X  0.15031387 -0.10362610 -0.31962825  0.02027375  0.16234173
                   Y -0.14436833 -0.12564599  0.18121772 -0.00246183  0.45265593
                   Z -0.12442363 -0.28087251  0.06051533 -0.00017319 -0.27375486
  7   H            X -0.15487331 -0.10425921  0.21303913  0.01993756  0.22559378
                   Y  0.16706079 -0.28395577 -0.44937618 -0.00002689  0.00007274
                   Z  0.08193177  0.05432466 -0.11286846 -0.00441961  0.51090637
  8   H            X -0.28568377 -0.15818055 -0.13265044 -0.02012261 -0.00299095
                   Y -0.12843414 -0.06310371 -0.06049692 -0.00286004  0.00741388
                   Z -0.34510971  0.49082681 -0.24477297  0.00169714 -0.00009084
  9   H            X -0.07266380  0.31104295 -0.07694943 -0.01996897 -0.00340181
                   Y  0.50985722 -0.01562854  0.27267876  0.00152566 -0.00396607
                   Z -0.29626834 -0.17955002 -0.13526773  0.00403453 -0.00595262
 10   H            X  0.32205450 -0.11437492  0.18555553 -0.02039933 -0.00237595
                   Y  0.13521389  0.50785507  0.00832466  0.00130880 -0.00336473
                   Z  0.19425855  0.21028149  0.07672786 -0.00100316  0.00667926

 TRANS. SAYVETZ    X  0.00001206  0.00000163  0.00000744 -0.00000400  0.00000653
                   Y  0.00000891 -0.00000735  0.00000629 -0.00000045  0.00000208
                   Z -0.00000430  0.00000643  0.00000711 -0.00000325 -0.00000079
               TOTAL  0.00001560  0.00000990  0.00001206  0.00000517  0.00000690

   ROT. SAYVETZ    X -0.00091402 -0.00056980  0.00118160  0.00000163 -0.00003815
                   Y  0.00038725 -0.00134982  0.00117897  0.00066569 -0.00011510
                   Z -0.00022033  0.00038021  0.00028141  0.00004006 -0.00020746
               TOTAL  0.00101683  0.00151369  0.00169273  0.00066690  0.00024029

                           26          27          28          29          30
       FREQUENCY:      3199.43     3255.55     3256.91     3257.78     3258.53  
        SYMMETRY:         A           A           A           A           A   
    REDUCED MASS:      1.03279     1.10011     1.10023     1.10025     1.10029
    IR INTENSITY:      0.47539     0.29623     0.45225     0.18885     0.44620

  1   C            X  0.00074758 -0.00546252 -0.00021414  0.00153596  0.00485676
                   Y -0.00003016 -0.06846157 -0.01369917 -0.00756689 -0.05199309
                   Z -0.00006015 -0.05253293 -0.00007399  0.01949136  0.06668144
  2   C            X -0.00095743 -0.00003901  0.00000855 -0.00001411  0.00002706
                   Y -0.00000355 -0.00033137 -0.00028823  0.00000423 -0.00025685
                   Z  0.00007495 -0.00028587 -0.00004102 -0.00010860  0.00040001
  3   C            X  0.00132929  0.00000804 -0.00002911 -0.00002612  0.00002945
                   Y -0.00000056 -0.00011965 -0.00047949  0.00004826 -0.00009671
                   Z -0.00009797 -0.00014951 -0.00006181 -0.00038948  0.00028507
  4   C            X  0.04674547 -0.00028569 -0.00111705 -0.00617003  0.00156745
                   Y -0.00070546  0.01166460 -0.08551584  0.01276634  0.00535494
                   Z -0.00311895 -0.00434593 -0.01176544 -0.08367378  0.02099025
  5   H            X -0.00208152 -0.23399493 -0.03243922  0.00949933 -0.02905758
                   Y  0.00670697  0.60459052  0.08253507 -0.02628051  0.06675829
                   Z  0.00406195  0.36487337  0.05283405 -0.00881742  0.06984285
  6   H            X -0.00193772  0.09482912  0.03351516  0.04543735  0.22016602
                   Y -0.00634531  0.23797130  0.08601843  0.11902686  0.57168582
                   Z  0.00381501 -0.17264975 -0.05468003 -0.06794743 -0.33688638
  7   H            X -0.00286656  0.20460100  0.00146486 -0.07334045 -0.24939864
                   Y  0.00000583 -0.02110397 -0.00411047 -0.00210055 -0.01462143
                   Z -0.00731069  0.43812144  0.00287777 -0.15702966 -0.53304100
  8   H            X -0.19301630  0.03673435 -0.26634033  0.04895303  0.01452407
                   Y  0.54117207 -0.09729437  0.69857297 -0.13443147 -0.03658749
                   Z -0.00940785  0.00032265 -0.01560002 -0.02258763  0.00682167
  9   H            X -0.22173051 -0.00992962  0.20630017  0.22980733 -0.07486948
                   Y -0.28887524 -0.00898122  0.23648188  0.29756645 -0.09374071
                   Z -0.43504434 -0.02021168  0.39096110  0.41762481 -0.13725610
 10   H            X -0.14829394 -0.02344521  0.07360099 -0.20472363  0.04149359
                   Y -0.24387635 -0.03353201  0.09100764 -0.31632198  0.06603172
                   Z  0.48199207  0.07199739 -0.23419203  0.60891440 -0.12156790

 TRANS. SAYVETZ    X -0.00000727 -0.00001715  0.00000668 -0.00002335  0.00002295
                   Y -0.00001992  0.00000824  0.00002836 -0.00000725  0.00000401
                   Z -0.00002123  0.00002274  0.00000644  0.00001746 -0.00003816
               TOTAL  0.00003001  0.00002965  0.00002984  0.00003004  0.00004471

   ROT. SAYVETZ    X  0.00003553  0.00021997  0.00015703 -0.00010952 -0.00032908
                   Y -0.00017617  0.00020717  0.00013860 -0.00021347 -0.00024593
                   Z  0.00001979 -0.00022508  0.00035150 -0.00018568 -0.00009808
               TOTAL  0.00018081  0.00037678  0.00040917  0.00030338  0.00042237

 REFERENCE ON SAYVETZ CONDITIONS - A. SAYVETZ, J.CHEM.PHYS., 7, 383-389(1939).

 NOTE - THE MODES J,K ARE ORTHONORMALIZED ACCORDING TO
 SUM ON I   M(I) * (X(I,J)*X(I,K) + Y(I,J)*Y(I,K) + Z(I,J)*Z(I,K)) = DELTA(J,K)

  MODE FREQ(CM**-1)  SYMMETRY  RED. MASS  IR INTENS.
     1      38.127    A        1.011282    0.000009
     2      35.155    A        1.009154    0.000000
     3       8.869    A        3.088946    0.000000
     4       7.494    A        3.108059    0.000000
     5       0.514    A        5.394051    0.000001
     6       0.899    A        5.381131    0.000000
     7       1.031    A        5.385758    0.000000
     8     232.992    A        2.819881    0.345103
     9     233.331    A        2.820666    0.345179
    10     569.315    A        3.487556    0.000019
    11     569.498    A        3.488764    0.000018
    12     736.919    A        3.953481    0.000001
    13    1182.169    A        6.563018    0.270776
    14    1197.712    A        1.381608    0.108708
    15    1197.761    A        1.381250    0.109110
    16    1213.416    A        1.487251    0.007866
    17    1213.531    A        1.486186    0.008378
    18    1583.172    A        1.182654    0.000066
    19    1589.542    A        1.184504    0.000000
    20    1658.804    A        1.037573    0.330834
    21    1658.973    A        1.037776    0.322726
    22    1659.727    A        1.040365    0.028911
    23    1659.934    A        1.040435    0.031792
    24    2565.872    A       11.678585    0.000000
    25    3199.084    A        1.032832    0.449530
    26    3199.434    A        1.032785    0.475394
    27    3255.554    A        1.100114    0.296235
    28    3256.912    A        1.100231    0.452245
    29    3257.778    A        1.100249    0.188849
    30    3258.531    A        1.100292    0.446196

     -------------------------------
     THERMOCHEMISTRY AT T=  298.15 K
     -------------------------------

 USING IDEAL GAS, RIGID ROTOR, HARMONIC NORMAL MODE APPROXIMATIONS.
 P=  1.01325E+05 PASCAL.
 ALL FREQUENCIES ARE SCALED BY   1.00000
 THE MOMENTS OF INERTIA ARE (IN AMU*BOHR**2)
             22.24576           534.48374           534.48734
 THE ROTATIONAL SYMMETRY NUMBER IS  1.0
 THE ROTATIONAL CONSTANTS ARE (IN GHZ)
     81.05312     3.37351     3.37349
   1 IMAGINARY FREQUENCY VIBRATION(S) IS(ARE) EXCLUDED
     FROM THE FOLLOWING THERMOCHEMICAL ANALYSIS.
      8 -     30 VIBRATIONAL MODES ARE USED IN THERMOCHEMISTRY.
 THE HARMONIC ZERO POINT ENERGY IS (SCALED BY   1.000)
        0.091468 HARTREE/MOLECULE    20074.982152 CM**-1/MOLECULE 
       57.397312 KCAL/MOL              240.150353 KJ/MOL

               Q               LN Q
 ELEC.     1.00000E+00       0.000000
 TRANS.    1.56175E+07      16.563900
 ROT.      2.85365E+04      10.258940
 VIB.      2.62170E+00       0.963823
 TOT.      1.16841E+12      27.786663

              E         H         G         CV        CP        S
           KJ/MOL    KJ/MOL    KJ/MOL   J/MOL-K   J/MOL-K   J/MOL-K
 ELEC.      0.000     0.000     0.000     0.000     0.000     0.000
 TRANS.     3.718     6.197   -41.061    12.472    20.786   158.505
 ROT.       3.718     3.718   -25.431    12.472    12.472    97.769
 VIB.     244.287   244.287   237.761    32.799    32.799    21.888
 TOTAL    251.724   254.203   171.269    57.743    66.057   278.162
 VIB. THERMAL CORRECTION E(T)-E(0) = H(T)-H(0) =      4136.627 J/MOL

              E         H         G         CV        CP        S
         KCAL/MOL  KCAL/MOL  KCAL/MOL CAL/MOL-K CAL/MOL-K CAL/MOL-K
 ELEC.      0.000     0.000     0.000     0.000     0.000     0.000
 TRANS.     0.889     1.481    -9.814     2.981     4.968    37.884
 ROT.       0.889     0.889    -6.078     2.981     2.981    23.367
 VIB.      58.386    58.386    56.826     7.839     7.839     5.231
 TOTAL     60.163    60.756    40.934    13.801    15.788    66.482
 VIB. THERMAL CORRECTION E(T)-E(0) = H(T)-H(0) =       988.678 CAL/MOL
 ......END OF NORMAL COORDINATE ANALYSIS......
 STEP CPU TIME =     0.00 TOTAL CPU TIME =         14.6 (      0.2 MIN)
 TOTAL WALL CLOCK TIME=         19.0 SECONDS, CPU UTILIZATION IS    76.97%
                580000  WORDS OF DYNAMIC MEMORY USED
 EXECUTION OF GAMESS TERMINATED NORMALLY Mon Oct  3 18:11:47 2022
 DDI: 263640 bytes (0.3 MB / 0 MWords) used by master data server.

 ----------------------------------------
 CPU timing information for all processes
 ========================================
 0: 13.477 + 1.178 = 14.656
 ----------------------------------------
 ddikick.x: exited gracefully.
----- accounting info -----
Files used on the master node chemcompute-node-0.novalocal were:
-rw-r--r--. 1 chemcomp chemcomp      987 Oct  3 18:11 /scratch/120398/459915.F05
-rw-rw-r--. 1 chemcomp chemcomp 68812800 Oct  3 18:11 /scratch/120398/459915.F10
Mon Oct  3 18:11:50 UTC 2022
0.102u 0.033s 0:22.36 0.5%	0+0k 8+216io 0pf+0w
Finishing Up...
Looking for IR data...
Looking for Raman data...
vibramans not found
Looking for thermodynamics data...
Looking for UV-Vis data...
chemcompute.org
{'UTCtimestamp': '2022-10-03T18:11:53.145307', 'cluster': 'jetstream2', 'clusterJobNumber': '120398', 'status': 'COMPLETE', 'nodeList': 'chemcompute-node-0'}
120398
