chemcompute.org
{'UTCtimestamp': '2022-10-03T20:50:42.484301', 'cluster': 'jetstream2', 'clusterJobNumber': '120448', 'status': 'RUNNING', 'nodeList': 'chemcompute-node-0'}
----- GAMESS execution script 'rungms' -----
This job is running on host chemcompute-node-0.novalocal
under operating system Linux at Mon Oct 3 20:50:46 UTC 2022
SLURM has assigned the following compute nodes to this run:
Available scratch disk space (Kbyte units) at beginning of the job is
Filesystem     1K-blocks     Used Available Use% Mounted on
/dev/sda1       62903276 11858172  51045104  19% /
GAMESS temporary binary files will be written to /scratch/120448
GAMESS supplementary output files will be written to /data/slurm/46/460008
Copying input file 460008.inp to your run's scratch directory...
The generated host list is
chemcompute-node-0.novalocal

 Distributed Data Interface kickoff program.
 Initiating 1 compute processes on 1 nodes to run the following command:
 /data/gamess-2019R1-avx2-ddi/gamess.00.x 460008 

          ******************************************************
          *         GAMESS VERSION = 30 JUN 2019 (R1)          *
          *             FROM IOWA STATE UNIVERSITY             *
          * M.W.SCHMIDT, K.K.BALDRIDGE, J.A.BOATZ, S.T.ELBERT, *
          *   M.S.GORDON, J.H.JENSEN, S.KOSEKI, N.MATSUNAGA,   *
          *          K.A.NGUYEN, S.J.SU, T.L.WINDUS,           *
          *       TOGETHER WITH M.DUPUIS, J.A.MONTGOMERY       *
          *         J.COMPUT.CHEM.  14, 1347-1363(1993)        *
          **************** 64 BIT INTEL VERSION ****************

  SINCE 1993, STUDENTS AND POSTDOCS WORKING AT IOWA STATE UNIVERSITY
  AND ALSO IN THEIR VARIOUS JOBS AFTER LEAVING ISU HAVE MADE IMPORTANT
  CONTRIBUTIONS TO THE CODE:
     IVANA ADAMOVIC, CHRISTINE AIKENS, YURI ALEXEEV, POOJA ARORA,
     ANDREY ASADCHEV, ROB BELL, PRADIPTA BANDYOPADHYAY, JONATHAN BENTZ,
     COLLEEN BERTONI, BRETT BODE, KURT BRORSEN, CALEB CARLIN, GALINA CHABAN,
     WEI CHEN, CHEOL HO CHOI, PAUL DAY, ALBERT DEFUSCO, NUWAN DESILVA,
     TIM DUDLEY, DMITRI FEDOROV, ALEX FINDLATER, GRAHAM FLETCHER, 
     MARK FREITAG, KURT GLAESEMANN, ANASTASIA GUNINA,
     DAN KEMP, GRANT MERRILL, NORIYUKI MINEZAWA, JONATHAN MULLIN,
     TAKESHI NAGATA, SEAN NEDD, HEATHER NETZLOFF, BOSILJKA NJEGIC, RYAN OLSON,
     MIKE PAK, BUU PHAM,
     SPENCER PRUITT, LUKE ROSKOP, JIM SHOEMAKER, LYUDMILA SLIPCHENKO,
     TONY SMITH, SAROM SOK LEANG, JIE SONG, TETSUYA TAKETSUGU, SIMON WEBB,
     PENG XU, SOOHAENG YOO, FEDERICO ZAHARIEV

  ADDITIONAL CODE HAS BEEN PROVIDED BY COLLABORATORS IN OTHER GROUPS:
     IOWA STATE UNIVERSITY:
          JOE IVANIC, AARON WEST, LAIMUTIS BYTAUTAS, KLAUS RUEDENBERG
     UNIVERSITY OF TOKYO: KIMIHIKO HIRAO, TAKAHITO NAKAJIMA,
          TAKAO TSUNEDA, MUNEAKI KAMIYA, SUSUMU YANAGISAWA,
          KIYOSHI YAGI, MAHITO CHIBA, SEIKEN TOKURA, NAOAKI KAWAKAMI
     UNIVERSITY OF AARHUS: FRANK JENSEN
     UNIVERSITY OF IOWA: VISVALDAS KAIRYS, HUI LI
     NATIONAL INST. OF STANDARDS AND TECHNOLOGY: WALT STEVENS, DAVID GARMER
     UNIVERSITY OF PISA: BENEDETTA MENNUCCI, JACOPO TOMASI
     UNIVERSITY OF MEMPHIS: HENRY KURTZ, PRAKASHAN KORAMBATH
     UNIVERSITY OF ALBERTA: TOBY ZENG, MARIUSZ KLOBUKOWSKI
     UNIVERSITY OF NEW ENGLAND: MARK SPACKMAN
     MIE UNIVERSITY: HIROAKI UMEDA
     NAT. INST. OF ADVANCED INDUSTRIAL SCIENCE AND TECHNOLOGY: KAZUO KITAURA
     MICHIGAN STATE UNIVERSITY:
          KAROL KOWALSKI, MARTA WLOCH, JEFFREY GOUR, JESSE LUTZ,
          WEI LI, JUN SHEN, J. EMILIANO DEUSTUA, PIOTR PIECUCH
     UNIVERSITY OF MINNESOTA:
          YINAN SHU
     UNIVERSITY OF SILESIA: MONIKA MUSIAL, STANISLAW KUCHARSKI
     FACULTES UNIVERSITAIRES NOTRE-DAME DE LA PAIX:
          OLIVIER QUINET, BENOIT CHAMPAGNE
     UNIVERSITY OF CALIFORNIA - SANTA BARBARA: BERNARD KIRTMAN
     INSTITUTE FOR MOLECULAR SCIENCE:
          KAZUYA ISHIMURA, MICHIO KATOUDA, AND SHIGERU NAGASE
     UNIVERSITY OF NOTRE DAME: ANNA POMOGAEVA, DAN CHIPMAN
     KYUSHU UNIVERSITY:
          HARUYUKI NAKANO,
          FENG LONG GU, JACEK KORCHOWIEC, MARCIN MAKOWSKI, AND YURIKO AOKI,
          HIROTOSHI MORI AND EISAKU MIYOSHI
     PENNSYLVANIA STATE UNIVERSITY:
          TZVETELIN IORDANOV, CHET SWALINA, JONATHAN SKONE,
          SHARON HAMMES-SCHIFFER
     WASEDA UNIVERSITY:
          MASATO KOBAYASHI, TOMOKO AKAMA, TSUGUKI TOUMA,
          TAKESHI YOSHIKAWA, YASUHIRO IKABATA, JUNJI SEINO,
          YUYA NAKAJIMA, HIROMI NAKAI
     NANJING UNIVERSITY: SHUHUA LI
     UNIVERSITY OF NEBRASKA:
          PEIFENG SU, DEJUN SI, NANDUN THELLAMUREGE, YALI WANG, HUI LI
     UNIVERSITY OF ZURICH: ROBERTO PEVERATI, KIM BALDRIDGE
     N. COPERNICUS UNIVERSITY AND JACKSON STATE UNIVERSITY:
          MARIA BARYSZ
     UNIVERSITY OF COPENHAGEN: Jimmy Kromann, CASPER STEINMANN
     TOKYO INSTITUTE OF TECHNOLOGY: HIROYA NAKATA
     NAGOYA UNIVERSITY: YOSHIO NISHIMOTO, STEPHAN IRLE
     MOSCOW STATE UNIVERSITY: VLADIMIR MIRONOV
     A.N.NESMEYANOV INSTITUTE OF ORGANOELEMENT COMPOUNDS OF RUSSIAN ACADEMY OF SCIENCES:
          IGOR S. GERASIMOV

 EXECUTION OF GAMESS BEGUN Mon Oct  3 20:50:46 2022

            ECHO OF THE FIRST FEW INPUT CARDS -
 INPUT CARD>!                                                                               
 INPUT CARD>!   GAMESS Calculation input file                                               
 INPUT CARD>!                                                                               
 INPUT CARD>!                                                                               
 INPUT CARD> $CONTRL SCFTYP=RHF MAXIT=200 RUNTYP=OPTIMIZE                                   
 INPUT CARD>         COORD=UNIQUE MULT=1                                                    
 INPUT CARD>         ICHARG=0                                                               
 INPUT CARD>         DFTTYP=B3LYP                                                           
 INPUT CARD>         MOLPLT=.FALSE. PLTORB=.FALSE.  $END                                    
 INPUT CARD> $SYSTEM TIMLIM=2879 MWORDS=250  $END                                           
 INPUT CARD>                                                                                
 INPUT CARD> $FORCE METHOD=SEMINUM NVIB=2 $END                                              
 INPUT CARD> $STATPT OPTTOL=0.0005 NSTEP=999 $END                                           
 INPUT CARD> $STATPT IHREP=0 HSSEND=.TRUE.  $END                                            
 INPUT CARD>                                                                                
 INPUT CARD> $DFT    METHOD=GRID  NLEB=590  $END                                            
 INPUT CARD>                                                                                
 INPUT CARD> $BASIS  GBASIS=N31 NGAUSS=6                                                    
 INPUT CARD>         NDFUNC=1   NPFUNC=0  $END                                              
 INPUT CARD>                                                                                
 INPUT CARD> $SCF    DIRSCF=.T. $END                                                        
 INPUT CARD> $GUESS  GUESS=HUCKEL  $END                                                     
 INPUT CARD>                                                                                
 INPUT CARD> $DATA                                                                          
 INPUT CARD>                                                                                
 INPUT CARD>  C1                                                                            
 INPUT CARD>C     6.0     1.80628     0.32321     0.19734                                   
 INPUT CARD>C     6.0     0.67587    -0.36155    -0.01291                                   
 INPUT CARD>C     6.0    -0.63255     0.32875    -0.02255                                   
 INPUT CARD>O     8.0    -1.67959    -0.29315    -0.15268                                   
 INPUT CARD>H     1.0     1.81833     1.39737     0.36872                                   
 INPUT CARD>H     1.0     2.76431    -0.18931     0.20772                                   
 INPUT CARD>H     1.0     0.66225    -1.43590    -0.17756                                   
 INPUT CARD>H     1.0    -0.61152     1.42258     0.09692                                   
 INPUT CARD> $END                                                                           
 INPUT CARD>                                                                                
 INPUT CARD>                                                                                
 INPUT CARD>! Customizations after this line are persisted when using Do More Calculations  
  250000000 WORDS OF MEMORY AVAILABLE

     BASIS OPTIONS
     -------------
     GBASIS=N31          IGAUSS=       6      POLAR=POPN31  
     NDFUNC=       1     NFFUNC=       0     DIFFSP=       F
     NPFUNC=       0      DIFFS=       F     BASNAM=        


     RUN TITLE
     ---------
                                                                                 

 THE POINT GROUP OF THE MOLECULE IS C1      
 THE ORDER OF THE PRINCIPAL AXIS IS     0

 ATOM      ATOMIC                      COORDINATES (BOHR)
           CHARGE         X                   Y                   Z
 C           6.0     3.4133742571        0.6107783365        0.3729185264
 C           6.0     1.2772091033       -0.6832304309       -0.0243963625
 C           6.0    -1.1953461735        0.6212474185       -0.0426133210
 O           8.0    -3.1739648717       -0.5539731733       -0.2885233638
 H           1.0     3.4361454553        2.6406464035        0.6967797662
 H           1.0     5.2237884451       -0.3577440267        0.3925338822
 H           1.0     1.2514710354       -2.7134575458       -0.3355397464
 H           1.0    -1.1556052360        2.6882863956        0.1831522427

          INTERNUCLEAR DISTANCES (ANGS.)
          ------------------------------

                1 C          2 C          3 C          4 O          5 H     

   1 C       0.0000000    1.3382556 *  2.4487291 *  3.5572044    1.0878125 *
   2 C       1.3382556 *  0.0000000    1.4793816 *  2.3605944 *  2.1318199 *
   3 C       2.4487291 *  1.4793816 *  0.0000000    1.2247392 *  2.7021942 *
   4 O       3.5572044    2.3605944 *  1.2247392 *  0.0000000    3.9198419  
   5 H       1.0878125 *  2.1318199 *  2.7021942 *  3.9198419    0.0000000  
   6 H       1.0865569 *  2.1071132 *  3.4438450    4.4596993    1.8542795 *
   7 H       2.1316244 *  1.0869789 *  2.1942025 *  2.6058993 *  3.1084340  
   8 H       2.6579043 *  2.2028517 *  1.1005360 *  2.0363701 *  2.4451343 *

                6 H          7 H          8 H     

   1 C       1.0865569 *  2.1316244 *  2.6579043 *
   2 C       2.1071132 *  1.0869789 *  2.2028517 *
   3 C       3.4438450    2.1942025 *  1.1005360 *
   4 O       4.4596993    2.6058993 *  2.0363701 *
   5 H       1.8542795 *  3.1084340    2.4451343 *
   6 H       0.0000000    2.4740824 *  3.7425518  
   7 H       2.4740824 *  0.0000000    3.1414546  
   8 H       3.7425518    3.1414546    0.0000000  

  * ... LESS THAN  3.000


     ATOMIC BASIS SET
     ----------------
 THE CONTRACTED PRIMITIVE FUNCTIONS HAVE BEEN UNNORMALIZED
 THE CONTRACTED BASIS FUNCTIONS ARE NOW NORMALIZED TO UNITY

  SHELL TYPE  PRIMITIVE        EXPONENT          CONTRACTION COEFFICIENT(S)

 C         

      1   S       1          3047.5248800    0.001834737132
      1   S       2           457.3695180    0.014037322813
      1   S       3           103.9486850    0.068842622264
      1   S       4            29.2101553    0.232184443216
      1   S       5             9.2866630    0.467941348435
      1   S       6             3.1639270    0.362311985337

      2   L       7             7.8682723   -0.119332419775    0.068999066591
      2   L       8             1.8812885   -0.160854151696    0.316423960957
      2   L       9             0.5442493    1.143456437840    0.744308290898

      3   L      10             0.1687145    1.000000000000    1.000000000000

      4   D      11             0.8000000    1.000000000000

 C         

      5   S      12          3047.5248800    0.001834737132
      5   S      13           457.3695180    0.014037322813
      5   S      14           103.9486850    0.068842622264
      5   S      15            29.2101553    0.232184443216
      5   S      16             9.2866630    0.467941348435
      5   S      17             3.1639270    0.362311985337

      6   L      18             7.8682723   -0.119332419775    0.068999066591
      6   L      19             1.8812885   -0.160854151696    0.316423960957
      6   L      20             0.5442493    1.143456437840    0.744308290898

      7   L      21             0.1687145    1.000000000000    1.000000000000

      8   D      22             0.8000000    1.000000000000

 C         

      9   S      23          3047.5248800    0.001834737132
      9   S      24           457.3695180    0.014037322813
      9   S      25           103.9486850    0.068842622264
      9   S      26            29.2101553    0.232184443216
      9   S      27             9.2866630    0.467941348435
      9   S      28             3.1639270    0.362311985337

     10   L      29             7.8682723   -0.119332419775    0.068999066591
     10   L      30             1.8812885   -0.160854151696    0.316423960957
     10   L      31             0.5442493    1.143456437840    0.744308290898

     11   L      32             0.1687145    1.000000000000    1.000000000000

     12   D      33             0.8000000    1.000000000000

 O         

     13   S      34          5484.6716600    0.001831074430
     13   S      35           825.2349460    0.013950172200
     13   S      36           188.0469580    0.068445078098
     13   S      37            52.9645000    0.232714335992
     13   S      38            16.8975704    0.470192897984
     13   S      39             5.7996353    0.358520852987

     14   L      40            15.5396162   -0.110777549525    0.070874268231
     14   L      41             3.5999336   -0.148026262701    0.339752839147
     14   L      42             1.0137618    1.130767015354    0.727158577316

     15   L      43             0.2700058    1.000000000000    1.000000000000

     16   D      44             0.8000000    1.000000000000

 H         

     17   S      45            18.7311370    0.033494604338
     17   S      46             2.8253944    0.234726953484
     17   S      47             0.6401217    0.813757326146

     18   S      48             0.1612778    1.000000000000

 H         

     19   S      49            18.7311370    0.033494604338
     19   S      50             2.8253944    0.234726953484
     19   S      51             0.6401217    0.813757326146

     20   S      52             0.1612778    1.000000000000

 H         

     21   S      53            18.7311370    0.033494604338
     21   S      54             2.8253944    0.234726953484
     21   S      55             0.6401217    0.813757326146

     22   S      56             0.1612778    1.000000000000

 H         

     23   S      57            18.7311370    0.033494604338
     23   S      58             2.8253944    0.234726953484
     23   S      59             0.6401217    0.813757326146

     24   S      60             0.1612778    1.000000000000

 TOTAL NUMBER OF BASIS SET SHELLS             =   24
 NUMBER OF CARTESIAN GAUSSIAN BASIS FUNCTIONS =   68
 NUMBER OF ELECTRONS                          =   30
 CHARGE OF MOLECULE                           =    0
 SPIN MULTIPLICITY                            =    1
 NUMBER OF OCCUPIED ORBITALS (ALPHA)          =   15
 NUMBER OF OCCUPIED ORBITALS (BETA )          =   15
 TOTAL NUMBER OF ATOMS                        =    8
 THE NUCLEAR REPULSION ENERGY IS      102.7735013488

 SELECTED MURRAY-HANDY-LAMING RADIAL GRID

 LEGACY BECKE'S FUZZY CELL METHOD

 SELECTED ORIGINAL BECKE'S PARTITION FUNCTION

     LEBEDEV GRID-BASED DFT OPTIONS
     ------------------------------
     DFTTYP=B3LYP   
     NRAD  =      96     NLEB  =     590
     NRAD0 =      24     NLEB0 =     110
     SWOFF =    5.00E-03 (PURE SCF -> DFT)
     SWITCH=    3.00E-04 (COARSE -> TIGHT GRID)
     THRESH=    0.00E+00 GTHRE=    1.00E+00

 GRIMME'S EMPIRICAL DISPERSION CORRECTION= F

     $CONTRL OPTIONS
     ---------------
 SCFTYP=RHF          RUNTYP=OPTIMIZE     EXETYP=RUN     
 MPLEVL=       0     CITYP =NONE         CCTYP =NONE         VBTYP =NONE    
 DFTTYP=B3LYP        TDDFT =NONE    
 MULT  =       1     ICHARG=       0     NZVAR =       0     COORD =UNIQUE  
 PP    =NONE         RELWFN=NONE         LOCAL =NONE         NUMGRD=       F
 ISPHER=      -1     NOSYM =       0     MAXIT =     200     UNITS =ANGS    
 PLTORB=       F     MOLPLT=       F     AIMPAC=       F     FRIEND=        
 NPRINT=       7     IREST =       0     GEOM  =INPUT   
 NORMF =       0     NORMP =       0     ITOL  =      20     ICUT  =       9
 INTTYP=BEST         GRDTYP=BEST         QMTTOL= 1.0E-06

     $SYSTEM OPTIONS
     ---------------
  REPLICATED MEMORY=   250000000 WORDS (ON EVERY NODE).
 DISTRIBUTED MEMDDI=           0 MILLION WORDS IN AGGREGATE,
 MEMDDI DISTRIBUTED OVER   1 PROCESSORS IS           0 WORDS/PROCESSOR.
 TOTAL MEMORY REQUESTED ON EACH PROCESSOR=   250000000 WORDS.
 TIMLIM=        2879.00 MINUTES, OR       2.0 DAYS.
 PARALL= F  BALTYP=  DLB     KDIAG=    0  COREFL= F
 MXSEQ2=     300 MXSEQ3=     150  mem10=         0

          ----------------
          PROPERTIES INPUT
          ----------------

     MOMENTS            FIELD           POTENTIAL          DENSITY
 IEMOM =       1   IEFLD =       0   IEPOT =       0   IEDEN =       0
 WHERE =COMASS     WHERE =NUCLEI     WHERE =NUCLEI     WHERE =NUCLEI  
 OUTPUT=BOTH       OUTPUT=BOTH       OUTPUT=BOTH       OUTPUT=BOTH    
 IEMINT=       0   IEFINT=       0                     IEDINT=       0
                                                       MORB  =       0
          EXTRAPOLATION IN EFFECT
          DIIS IN EFFECT
 ORBITAL PRINTING OPTION: NPREO=     1    68     2     1

     -------------------------------
     INTEGRAL TRANSFORMATION OPTIONS
     -------------------------------
     NWORD  =            0
     CUTOFF = 1.0E-09     MPTRAN =       0
     DIRTRF =       T     AOINTS =DUP     

          ----------------------
          INTEGRAL INPUT OPTIONS
          ----------------------
 NOPK  =       1 NORDER=       0 SCHWRZ=       T

     ------------------------------------------
     THE POINT GROUP IS C1 , NAXIS= 0, ORDER= 1
     ------------------------------------------

     DIMENSIONS OF THE SYMMETRY SUBSPACES ARE
 A   =   68

 ..... DONE SETTING UP THE RUN .....
 STEP CPU TIME =     0.01 TOTAL CPU TIME =          0.0 (      0.0 MIN)
 TOTAL WALL CLOCK TIME=          0.0 SECONDS, CPU UTILIZATION IS    50.00%


          -----------------------------
          STATIONARY POINT LOCATION RUN
          -----------------------------

 OBTAINING INITIAL HESSIAN, HESS=GUESS   
 CARTESIAN COORDINATE OPTIMIZATION USING BADGER'S RULE FORCE CONSTANT GUESS

          PARAMETERS CONTROLLING GEOMETRY SEARCH ARE
          METHOD =QA                  UPHESS =BFGS    
          NNEG   =         0          NFRZ   =         0
          NSTEP  =       999          IFOLOW =         1
          HESS   =GUESS               RESTAR =         F
          IHREP  =         0          HSSEND =         T
          NPRT   =         0          NPUN   =         0
          OPTTOL = 5.000E-04          RMIN   = 1.500E-03
          RMAX   = 1.000E-01          RLIM   = 7.000E-02
          DXMAX  = 3.000E-01          PURIFY =         F
          MOVIE  =         F          TRUPD  =         T
          TRMAX  = 5.000E-01          TRMIN  = 5.000E-02
          ITBMAT =         5          STPT   =         F
          STSTEP = 1.000E-02          PROJCT=          T

 BEGINNING GEOMETRY SEARCH POINT NSERCH=   0 ...

 COORDINATES OF ALL ATOMS ARE (ANGS)
   ATOM   CHARGE       X              Y              Z
 ------------------------------------------------------------
 C           6.0   1.8062800000   0.3232100000   0.1973400000
 C           6.0   0.6758700000  -0.3615500000  -0.0129100000
 C           6.0  -0.6325500000   0.3287500000  -0.0225500000
 O           8.0  -1.6795900000  -0.2931500000  -0.1526800000
 H           1.0   1.8183300000   1.3973700000   0.3687200000
 H           1.0   2.7643100000  -0.1893100000   0.2077200000
 H           1.0   0.6622500000  -1.4359000000  -0.1775600000
 H           1.0  -0.6115200000   1.4225800000   0.0969200000

          ********************
          1 ELECTRON INTEGRALS
          ********************
 ...... END OF ONE-ELECTRON INTEGRALS ......
 STEP CPU TIME =     0.00 TOTAL CPU TIME =          0.0 (      0.0 MIN)
 TOTAL WALL CLOCK TIME=          0.0 SECONDS, CPU UTILIZATION IS    25.00%

          -------------
          GUESS OPTIONS
          -------------
          GUESS =HUCKEL            NORB  =       0          NORDER=       0
          MIX   =       F          PRTMO =       F          PUNMO =       F
          TOLZ  = 1.0E-08          TOLE  = 1.0E-05
          SYMDEN=       F          PURIFY=       F

 INITIAL GUESS ORBITALS GENERATED BY HUCKEL   ROUTINE.
 HUCKEL GUESS REQUIRES     42032 WORDS.

 SYMMETRIES FOR INITIAL GUESS ORBITALS FOLLOW.   BOTH SET(S).
    15 ORBITALS ARE OCCUPIED (    4 CORE ORBITALS).
     5=A        6=A        7=A        8=A        9=A       10=A       11=A   
    12=A       13=A       14=A       15=A       16=A       17=A       18=A   
    19=A       20=A       21=A       22=A       23=A       24=A       25=A   
 ...... END OF INITIAL ORBITAL SELECTION ......
 STEP CPU TIME =     0.01 TOTAL CPU TIME =          0.0 (      0.0 MIN)
 TOTAL WALL CLOCK TIME=          0.0 SECONDS, CPU UTILIZATION IS    40.00%

                    ----------------------
                    AO INTEGRAL TECHNOLOGY
                    ----------------------
     S,P,L SHELL ROTATED AXIS INTEGRALS, REPROGRAMMED BY
        KAZUYA ISHIMURA (IMS) AND JOSE SIERRA (SYNSTAR).
     S,P,D,L SHELL ROTATED AXIS INTEGRALS PROGRAMMED BY
        KAZUYA ISHIMURA (INSTITUTE FOR MOLECULAR SCIENCE).
     S,P,D,F,G SHELL TO TOTAL QUARTET ANGULAR MOMENTUM SUM 5,
        ERIC PROGRAM BY GRAHAM FLETCHER (ELORET AND NASA ADVANCED
        SUPERCOMPUTING DIVISION, AMES RESEARCH CENTER).
     S,P,D,F,G,L SHELL GENERAL RYS QUADRATURE PROGRAMMED BY
        MICHEL DUPUIS (PACIFIC NORTHWEST NATIONAL LABORATORY).

          --------------------
          2 ELECTRON INTEGRALS
          --------------------

 DIRECT SCF METHOD SKIPS INTEGRAL STORAGE ON DISK.
 DIRECT TRANSFORMATION SKIPS AO INTEGRAL STORAGE ON DISK.
  ...... END OF TWO-ELECTRON INTEGRALS .....
 STEP CPU TIME =     0.01 TOTAL CPU TIME =          0.0 (      0.0 MIN)
 TOTAL WALL CLOCK TIME=          0.1 SECONDS, CPU UTILIZATION IS    50.00%

          --------------------------
             R-B3LYP SCF CALCULATION
          --------------------------

     NUCLEAR ENERGY =       102.7735013488
     MAXIT =  200     NPUNCH=    2
     EXTRAP=T  DAMP=F  SHIFT=F  RSTRCT=F  DIIS=T  DEM=F  SOSCF=F
         DENSITY MATRIX CONVERGENCE THRESHOLD=  2.00E-05
     COARSE -> FINE DFT GRID SWITCH THRESHOLD=  3.00E-04 (SWITCH IN $DFT)
                   HF -> DFT SWITCH THRESHOLD=  5.00E-03 (SWOFF IN $DFT)
     MEMORY REQUIRED FOR RHF ITERS=    620217 WORDS.

 DIRECT SCF CALCULATION, SCHWRZ=T   FDIFF=T,  DIRTHR=  0.00E+00 NITDIR=10
 SCHWARZ INEQUALITY OVERHEAD:      2343 INTEGRALS, T=        0.00

 DFT CODE IS SWITCHING FROM THE FINE GRID NRAD= 96,  NLEB=  590
                      TO THE COARSE GRID NRAD0= 24, NLEB0=  110

     EXCHANGE FUNCTIONAL   =B88&HFX   
     CORRELATION FUNCTIONAL=LYP88&VWN5
     DFT THRESHOLD         =.883E-08
     GRID CHANGE THRESHOLD =.300E-03
 FOR AN EULER-MACLAURIN QUADRATURE USING  96 RADIAL POINTS:
 SMALLEST GAUSSIAN PRIMITIVE EXPONENT=        0.1612777588 OF TYPE -S-
 ON ATOM NUMBER   5 HAS RADIAL NORMALIZATION=  1.000000
  LARGEST GAUSSIAN PRIMITIVE EXPONENT=     5484.6716600000 OF TYPE -S-
 ON ATOM NUMBER   4 HAS RADIAL NORMALIZATION=  1.000000
 DFT IS SWITCHED OFF, PERFORMING PURE SCF UNTIL SWOFF THRESHOLD IS REACHED.

                                                                                   NONZERO     BLOCKS
 ITER EX DEM     TOTAL ENERGY        E CHANGE  DENSITY CHANGE    DIIS ERROR      INTEGRALS    SKIPPED
   1  0  0     -190.2059655511  -190.2059655511   0.303802991   0.698717141        2541114       4224
          * * *   INITIATING DIIS PROCEDURE   * * *
   2  1  0     -190.6947133277    -0.4887477766   0.159229835   0.115118458        2540862       4508
   3  2  0     -190.7282608665    -0.0335475388   0.081076459   0.102017023        2538105       4896
   4  3  0     -190.7583635241    -0.0301026575   0.014709414   0.008369120        2533973       5281
   5  4  0     -190.7590487437    -0.0006852196   0.006508299   0.003334403        2521592       5866
   6  5  0     -190.7591341582    -0.0000854145   0.002919509   0.001159510        2504584       6584
 CONVERGED TO SWOFF, SO DFT CALCULATION IS NOW SWITCHED ON.
          * * *   INITIATING DIIS PROCEDURE   * * *
   7  6  0     -191.7803254433    -1.0211912851   0.116512158   0.101353534        2541255       4233
   8  7  0     -191.7978244974    -0.0174990541   0.073317861   0.034046118        2538778       4804
   9  8  0     -191.7924730979     0.0053513995   0.058330172   0.051005677        2534193       5194
  10  9  0     -191.8021456946    -0.0096725967   0.009782852   0.011514909        2529543       5463
  11 10  0     -191.8024721937    -0.0003264991   0.001545097   0.000966446        2512091       6165
  12 11  0     -191.8024740618    -0.0000018681   0.000832468   0.000595289        2467477       7545
  13 12  0     -191.8024763757    -0.0000023139   0.000082288   0.000061557        2422712       8802
 DFT CODE IS SWITCHING BACK TO THE FINE GRID
          * * *   INITIATING DIIS PROCEDURE   * * *
  14 13  0     -191.8004394028     0.0020369729   0.003330882   0.001628824        2541368       4197
  15 14  0     -191.8004476354    -0.0000082325   0.000453062   0.000178584        2491205       7056
  16 15  0     -191.8004475962     0.0000000392   0.000306067   0.000191523        2424015       9065
  17 16  0     -191.8004478055    -0.0000002093   0.000132776   0.000100530        2385583       9951
  18 17  0     -191.8004478316    -0.0000000262   0.000038369   0.000033243        2346180      10808
  19 18  0     -191.8004478357    -0.0000000040   0.000013065   0.000006210        2295991      11908
  20 19  0     -191.8004478358    -0.0000000002   0.000004779   0.000003613        2201537      14198

          -----------------
          DENSITY CONVERGED
          -----------------
     TIME TO FORM FOCK OPERATORS=       9.5 SECONDS (       0.5 SEC/ITER)
     FOCK TIME ON FIRST ITERATION=       0.1, LAST ITERATION=       1.1
     TIME TO SOLVE SCF EQUATIONS=       0.1 SECONDS (       0.0 SEC/ITER)

 FINAL R-B3LYP ENERGY IS     -191.8004478358 AFTER  20 ITERATIONS
 DFT EXCHANGE + CORRELATION ENERGY =       -21.1472866092
 TOTAL ELECTRON NUMBER             =        30.0000032613

          ------------
          EIGENVECTORS
          ------------

                      1          2          3          4          5
                  -19.1431   -10.2737   -10.2162   -10.2067    -1.0333
                     A          A          A          A          A   
    1  C  1  S    0.000025  -0.000055   0.991710  -0.044634  -0.004034
    2  C  1  S    0.000119  -0.000245   0.049211  -0.002759   0.010101
    3  C  1  X   -0.000085   0.000131  -0.000059   0.000349  -0.007078
    4  C  1  Y    0.000019  -0.000070   0.000008   0.000195  -0.000750
    5  C  1  Z   -0.000009  -0.000001   0.000003   0.000063  -0.000741
    6  C  1  S   -0.000165   0.000031  -0.012716   0.005908   0.010402
    7  C  1  X    0.000563  -0.000703   0.000802  -0.002220   0.007510
    8  C  1  Y   -0.000270   0.000286   0.000435  -0.000437  -0.010449
    9  C  1  Z    0.000013  -0.000006   0.000131  -0.000270  -0.001046
   10  C  1 XX   -0.000006   0.000067  -0.009296   0.000119   0.000384
   11  C  1 YY    0.000034   0.000026  -0.009410   0.000142  -0.000092
   12  C  1 ZZ    0.000068  -0.000127  -0.009769   0.000304   0.000141
   13  C  1 XY    0.000008   0.000048   0.000124  -0.000104   0.000078
   14  C  1 XZ   -0.000007   0.000027   0.000072  -0.000037   0.000048
   15  C  1 YZ   -0.000004   0.000033   0.000080  -0.000040  -0.000024
   16  C  2  S   -0.000012   0.002087   0.044148   0.991767  -0.020958
   17  C  2  S   -0.000002  -0.000075   0.001689   0.049645   0.038161
   18  C  2  X   -0.000006   0.000233  -0.000340   0.000069  -0.028409
   19  C  2  Y    0.000044  -0.000226  -0.000219   0.000262   0.007909
   20  C  2  Z    0.000007  -0.000013  -0.000065   0.000052  -0.000891
   21  C  2  S    0.000718   0.003060   0.003850  -0.015716   0.024977
   22  C  2  X   -0.000405  -0.001064   0.001542   0.000209  -0.020470
   23  C  2  Y   -0.000361   0.001231   0.000735  -0.002182  -0.005633
   24  C  2  Z   -0.000069   0.000063   0.000265  -0.000332  -0.002035
   25  C  2 XX   -0.000082  -0.000497  -0.000707  -0.009185   0.007000
   26  C  2 YY   -0.000004  -0.000265  -0.000666  -0.009320  -0.000201
   27  C  2 ZZ   -0.000020  -0.000172  -0.000565  -0.009628  -0.002421
   28  C  2 XY   -0.000028   0.000141  -0.000023   0.000159  -0.003058
   29  C  2 XZ   -0.000008  -0.000009  -0.000020   0.000073   0.000389
   30  C  2 YZ    0.000004  -0.000005  -0.000020   0.000071   0.000212
   31  C  3  S    0.000013   0.992818  -0.000115  -0.002358  -0.118037
   32  C  3  S    0.000545   0.048716  -0.000187  -0.000382   0.230099
   33  C  3  X    0.000010  -0.000630  -0.000020  -0.000226  -0.149526
   34  C  3  Y   -0.000048  -0.000441  -0.000005   0.000147  -0.095240
   35  C  3  Z   -0.000007  -0.000084  -0.000004   0.000004  -0.019293
   36  C  3  S   -0.003328  -0.008836   0.000012   0.005149   0.071128
   37  C  3  X    0.002264  -0.002989   0.000483   0.001806   0.017869
   38  C  3  Y    0.002073  -0.001323   0.000418  -0.001048   0.031871
   39  C  3  Z    0.000371  -0.000342   0.000081   0.000011   0.004677
   40  C  3 XX   -0.000630  -0.008686   0.000040  -0.000378   0.011244
   41  C  3 YY   -0.000248  -0.009189  -0.000037  -0.000258  -0.005860
   42  C  3 ZZ   -0.000022  -0.009700  -0.000060  -0.000138  -0.018713
   43  C  3 XY   -0.000420   0.000488  -0.000028   0.000200   0.021006
   44  C  3 XZ   -0.000088   0.000125   0.000008   0.000004   0.004409
   45  C  3 YZ   -0.000054   0.000095   0.000003  -0.000011   0.002933
   46  O  4  S    0.992767  -0.000130  -0.000037   0.000026  -0.194543
   47  O  4  S    0.025691   0.000382  -0.000166   0.000072   0.425106
   48  O  4  X    0.000971  -0.000051  -0.000015   0.000030   0.138276
   49  O  4  Y    0.000592  -0.000012   0.000001  -0.000003   0.080486
   50  O  4  Z    0.000123  -0.000006   0.000002  -0.000003   0.016992
   51  O  4  S    0.013684  -0.002741   0.000942  -0.000761   0.400375
   52  O  4  X    0.001424  -0.001598   0.000272  -0.000359   0.050536
   53  O  4  Y    0.000718  -0.001070   0.000042   0.000068   0.025557
   54  O  4  Z    0.000158  -0.000203   0.000013  -0.000005   0.005685
   55  O  4 XX   -0.007689  -0.000182  -0.000062   0.000097   0.005174
   56  O  4 YY   -0.007974   0.000087  -0.000125   0.000129  -0.005552
   57  O  4 ZZ   -0.008099   0.000395  -0.000116   0.000019  -0.005715
   58  O  4 XY    0.000252  -0.000313  -0.000006  -0.000013   0.010538
   59  O  4 XZ    0.000055  -0.000073   0.000002   0.000006   0.001888
   60  O  4 YZ    0.000031  -0.000057  -0.000001   0.000011   0.000659
   61  H  5  S    0.000095  -0.000124  -0.000336  -0.000126   0.003053
   62  H  5  S    0.000040  -0.000067   0.002165  -0.000505   0.003854
   63  H  6  S   -0.000036   0.000045  -0.000335  -0.000016   0.000047
   64  H  6  S   -0.000312   0.000525   0.002124   0.000082  -0.007292
   65  H  7  S   -0.000026  -0.000041  -0.000101  -0.000356   0.007855
   66  H  7  S   -0.000309   0.000317  -0.000000   0.001664  -0.001551
   67  H  8  S   -0.000043  -0.000259  -0.000063  -0.000111   0.028516
   68  H  8  S   -0.000541   0.002450  -0.000204  -0.000109  -0.016722

                      6          7          8          9         10
                   -0.7984    -0.6445    -0.5739    -0.4768    -0.4691
                     A          A          A          A          A   
    1  C  1  S   -0.145319  -0.131301  -0.048615  -0.008164  -0.006336
    2  C  1  S    0.280670   0.262773   0.097695   0.015272   0.015619
    3  C  1  X   -0.089664   0.083373   0.063647  -0.019300   0.359699
    4  C  1  Y   -0.045841   0.002989   0.151751   0.299575   0.018199
    5  C  1  Z   -0.015156   0.008678   0.029212   0.046626   0.036597
    6  C  1  S    0.219514   0.245257   0.106052   0.051823   0.004069
    7  C  1  X   -0.014796   0.037247   0.014267  -0.015864   0.147243
    8  C  1  Y    0.002986   0.004743   0.052693   0.105574   0.002971
    9  C  1  Z   -0.000856   0.004327   0.009297   0.015707   0.014498
   10  C  1 XX    0.006506  -0.002327  -0.001023  -0.004713   0.002855
   11  C  1 YY    0.001434   0.006204   0.004131   0.009258   0.006103
   12  C  1 ZZ   -0.014589  -0.011800  -0.004543  -0.000790  -0.000326
   13  C  1 XY    0.003867  -0.005992  -0.008628  -0.001044  -0.013897
   14  C  1 XZ    0.002915   0.000130  -0.000885  -0.000691  -0.001790
   15  C  1 YZ    0.003376   0.002772   0.000851   0.001819  -0.000174
   16  C  2  S   -0.159919   0.057324   0.096575   0.008810   0.031411
   17  C  2  S    0.313176  -0.117194  -0.196039  -0.015932  -0.068426
   18  C  2  X    0.055917   0.211790  -0.023845  -0.228249  -0.186662
   19  C  2  Y    0.068202  -0.006019   0.183823   0.128493  -0.215060
   20  C  2  Z    0.015764   0.019188   0.024465   0.002559  -0.049786
   21  C  2  S    0.203006  -0.103052  -0.212596  -0.012542  -0.022464
   22  C  2  X    0.005802   0.048341   0.005134  -0.099448  -0.030442
   23  C  2  Y   -0.014599   0.007109   0.055892   0.042196  -0.053647
   24  C  2  Z   -0.001691   0.005780   0.008638  -0.000488  -0.011152
   25  C  2 XX    0.001611   0.002178   0.006319   0.001399   0.007578
   26  C  2 YY    0.001881  -0.003430  -0.004475  -0.002347   0.002939
   27  C  2 ZZ   -0.014880   0.005034   0.007622   0.000746   0.001406
   28  C  2 XY    0.003633   0.014096  -0.003343  -0.000255  -0.007550
   29  C  2 XZ    0.002432   0.001815  -0.000572  -0.000243  -0.000513
   30  C  2 YZ    0.003454  -0.000162  -0.002550  -0.000356  -0.000445
   31  C  3  S   -0.051183   0.116351  -0.085273   0.013208  -0.051500
   32  C  3  S    0.101177  -0.246837   0.180848  -0.025965   0.123993
   33  C  3  X    0.133547  -0.169684  -0.018800   0.179583  -0.072350
   34  C  3  Y    0.003047  -0.034103   0.228368  -0.267468  -0.133188
   35  C  3  Z    0.009312  -0.013253   0.025077  -0.014630  -0.025041
   36  C  3  S    0.081996  -0.211393   0.181278  -0.066350   0.106391
   37  C  3  X    0.039758  -0.047870   0.022901   0.059369  -0.016451
   38  C  3  Y    0.010999  -0.025841   0.074191  -0.074128  -0.047870
   39  C  3  Z    0.004173  -0.005338   0.010194  -0.002570  -0.009580
   40  C  3 XX    0.003251   0.008873  -0.009513   0.001580  -0.012998
   41  C  3 YY    0.000982  -0.005654   0.005262  -0.007030   0.001869
   42  C  3 ZZ   -0.004426   0.008346  -0.006545   0.001876  -0.004452
   43  C  3 XY   -0.010573   0.012395   0.002599  -0.000198  -0.000979
   44  C  3 XZ   -0.000417   0.001434   0.000206   0.000057  -0.000949
   45  C  3 YZ   -0.000005  -0.001029   0.001608  -0.001231   0.001007
   46  O  4  S    0.040159  -0.067895   0.035210  -0.013963   0.065508
   47  O  4  S   -0.093199   0.155297  -0.081107   0.023772  -0.136882
   48  O  4  X    0.002287  -0.060887   0.008930   0.056989   0.257525
   49  O  4  Y   -0.014450  -0.011895   0.110265  -0.186407   0.070597
   50  O  4  Z   -0.001212  -0.004719   0.013208  -0.014379   0.018608
   51  O  4  S   -0.081544   0.189002  -0.099734   0.080038  -0.281242
   52  O  4  X    0.005898  -0.035573   0.009114   0.043000   0.129799
   53  O  4  Y    0.000060  -0.008053   0.057959  -0.096366   0.027874
   54  O  4  Z    0.000304  -0.002937   0.007115  -0.006680   0.008444
   55  O  4 XX    0.001811  -0.008799  -0.001535   0.007872   0.021259
   56  O  4 YY   -0.000608  -0.001756   0.007865  -0.014952   0.004140
   57  O  4 ZZ   -0.000606   0.000976  -0.000725  -0.002729   0.000283
   58  O  4 XY   -0.000239  -0.003346   0.008414  -0.008382   0.007084
   59  O  4 XZ    0.000163  -0.001027   0.000931  -0.000019   0.001898
   60  O  4 YZ   -0.000002  -0.000548   0.001626  -0.001959   0.000764
   61  H  5  S    0.074622   0.105492   0.120475   0.178741   0.027407
   62  H  5  S    0.009574   0.036115   0.065295   0.123009   0.022697
   63  H  6  S    0.071620   0.132427   0.037928  -0.078194   0.189928
   64  H  6  S    0.014795   0.047592   0.020196  -0.056991   0.134521
   65  H  7  S    0.074869  -0.044134  -0.170097  -0.076738   0.092493
   66  H  7  S    0.002427  -0.008732  -0.084646  -0.050106   0.072399
   67  H  8  S    0.033741  -0.105437   0.180392  -0.150946  -0.016483
   68  H  8  S    0.004350  -0.030130   0.096191  -0.106518  -0.019196

                     11         12         13         14         15
                   -0.4134    -0.3923    -0.3908    -0.2881    -0.2530
                     A          A          A          A          A   
    1  C  1  S   -0.020130   0.006428   0.005383   0.000091   0.009463
    2  C  1  S    0.046328  -0.012623  -0.011054  -0.000510  -0.016132
    3  C  1  X   -0.217543  -0.110640  -0.040061  -0.034826   0.070511
    4  C  1  Y   -0.078420   0.270375   0.107532  -0.058823   0.022715
    5  C  1  Z   -0.025367  -0.009739   0.107174   0.368859   0.013926
    6  C  1  S    0.073042  -0.031032  -0.025314   0.000552  -0.126160
    7  C  1  X   -0.075715  -0.038825  -0.015203  -0.027432   0.091792
    8  C  1  Y   -0.035789   0.106933   0.040603  -0.042911   0.047541
    9  C  1  Z   -0.008792  -0.010210   0.058339   0.269598   0.020482
   10  C  1 XX   -0.001139  -0.019726  -0.007509   0.002047   0.006706
   11  C  1 YY   -0.006191   0.019575   0.009992   0.001919  -0.005056
   12  C  1 ZZ   -0.000482   0.001987  -0.000830  -0.004065   0.000891
   13  C  1 XY    0.007178   0.010171   0.005250   0.002717  -0.004445
   14  C  1 XZ    0.000519   0.002001  -0.005950  -0.012718  -0.000237
   15  C  1 YZ   -0.000559   0.005482  -0.000199  -0.007030  -0.001537
   16  C  2  S   -0.001545  -0.013308  -0.005755   0.000499  -0.039457
   17  C  2  S    0.007282   0.022874   0.009097  -0.000409   0.075891
   18  C  2  X    0.169355   0.070555   0.002077  -0.030537  -0.203011
   19  C  2  Y    0.163203  -0.226111  -0.147510  -0.054559   0.082647
   20  C  2  Z    0.054840  -0.103450   0.144755   0.354101  -0.004244
   21  C  2  S   -0.028647   0.059779   0.031374  -0.005481   0.340046
   22  C  2  X    0.032523   0.035692   0.006143  -0.021120  -0.057757
   23  C  2  Y    0.018439  -0.073568  -0.052769  -0.035968   0.120139
   24  C  2  Z    0.014098  -0.050647   0.085779   0.237850   0.011747
   25  C  2 XX    0.007864  -0.016911  -0.007661  -0.002213   0.001604
   26  C  2 YY   -0.012649   0.021371   0.009127  -0.002357  -0.004809
   27  C  2 ZZ    0.000513  -0.001129   0.000333   0.004798  -0.002059
   28  C  2 XY    0.009326   0.008255   0.002935  -0.003030  -0.005596
   29  C  2 XZ    0.001549   0.002262  -0.005823   0.013741  -0.000113
   30  C  2 YZ   -0.000805   0.002165   0.007782   0.008981  -0.000627
   31  C  3  S   -0.017481   0.021542   0.010108  -0.000328  -0.001365
   32  C  3  S    0.053290  -0.046085  -0.022582   0.000265   0.014448
   33  C  3  X   -0.237471  -0.186006  -0.095060   0.003790   0.076842
   34  C  3  Y   -0.208298   0.092060   0.013342   0.009211  -0.110784
   35  C  3  Z   -0.014174  -0.152435   0.327319  -0.045945  -0.007527
   36  C  3  S   -0.003464  -0.077430  -0.031563   0.005404  -0.002557
   37  C  3  X   -0.021572  -0.067536  -0.044520  -0.001068  -0.080511
   38  C  3  Y   -0.019166   0.036458  -0.006790   0.003253   0.009660
   39  C  3  Z    0.009605  -0.085836   0.186700  -0.031343  -0.004822
   40  C  3 XX    0.008414   0.001718   0.001249  -0.003525   0.035593
   41  C  3 YY   -0.017611  -0.000114   0.004369   0.000176  -0.038079
   42  C  3 ZZ   -0.005560   0.001181  -0.003525   0.003553   0.000865
   43  C  3 XY    0.012694  -0.000828   0.000998  -0.003438  -0.023265
   44  C  3 XZ    0.002089   0.005604  -0.012488   0.025298  -0.000089
   45  C  3 YZ   -0.001723   0.006047  -0.012195   0.003349  -0.006333
   46  O  4  S    0.061398   0.015125   0.004064   0.000238   0.000519
   47  O  4  S   -0.122595  -0.027627  -0.006979  -0.000096   0.006303
   48  O  4  X    0.381029   0.032185  -0.037011   0.013148  -0.312607
   49  O  4  Y    0.203287   0.193290   0.025299   0.026157   0.496998
   50  O  4  Z    0.067920  -0.156394   0.397890  -0.281838   0.033677
   51  O  4  S   -0.268602  -0.083475  -0.026383  -0.004065  -0.043518
   52  O  4  X    0.204781   0.009772  -0.026032   0.008844  -0.230080
   53  O  4  Y    0.110592   0.109334   0.011724   0.018194   0.348968
   54  O  4  Z    0.037718  -0.097105   0.242485  -0.203452   0.023151
   55  O  4 XX    0.023026  -0.000712  -0.004458   0.001243  -0.012494
   56  O  4 YY    0.005541   0.011374   0.002128   0.001705   0.016432
   57  O  4 ZZ    0.000557  -0.001350   0.005225  -0.002412   0.002680
   58  O  4 XY    0.013319   0.008362  -0.000920   0.001487   0.009022
   59  O  4 XZ    0.004455  -0.009779   0.022902  -0.011584  -0.000080
   60  O  4 YZ    0.002266  -0.004106   0.013343  -0.007748   0.002231
   61  H  5  S   -0.038782   0.183851   0.083490  -0.000501  -0.014080
   62  H  5  S   -0.047237   0.174350   0.081315   0.000033  -0.046284
   63  H  6  S   -0.079903  -0.166512  -0.066784   0.000127   0.042358
   64  H  6  S   -0.082356  -0.149790  -0.058917   0.000911   0.054400
   65  H  7  S   -0.113387   0.183248   0.093886   0.000201  -0.026097
   66  H  7  S   -0.122898   0.156780   0.081721   0.001885  -0.068629
   67  H  8  S   -0.116742   0.026909   0.021764   0.004319  -0.166532
   68  H  8  S   -0.129790   0.043513   0.029955   0.003947  -0.255633

                     16         17         18         19         20
                   -0.0609     0.0581     0.1095     0.1145     0.1537
                     A          A          A          A          A   
    1  C  1  S   -0.001116  -0.004048  -0.115363  -0.004352   0.055454
    2  C  1  S    0.003168   0.009274   0.183191   0.002102  -0.084690
    3  C  1  X   -0.036785   0.021982   0.177951  -0.139671   0.056816
    4  C  1  Y   -0.057278   0.034124   0.105414   0.211283  -0.165994
    5  C  1  Z    0.364463  -0.223452   0.035175   0.014119  -0.027637
    6  C  1  S    0.008482   0.038379   1.803896   0.006314  -0.863002
    7  C  1  X   -0.035679   0.070209   0.534792  -0.392062   0.258741
    8  C  1  Y   -0.067444   0.071511   0.274406   0.516053  -0.428999
    9  C  1  Z    0.427897  -0.459194   0.102837   0.030497  -0.055835
   10  C  1 XX   -0.002136   0.002008  -0.009540   0.011916  -0.010586
   11  C  1 YY   -0.000862   0.004962  -0.004142  -0.010107   0.021670
   12  C  1 ZZ    0.002992  -0.007583  -0.004958  -0.003072   0.000923
   13  C  1 XY   -0.001817   0.005104   0.010890  -0.011477   0.010874
   14  C  1 XZ    0.010922  -0.018336   0.001577  -0.000901  -0.000161
   15  C  1 YZ    0.003760  -0.016896   0.001891  -0.002988   0.004678
   16  C  2  S   -0.000252  -0.002181  -0.003567   0.071116   0.014606
   17  C  2  S   -0.000582   0.001101  -0.011075  -0.110655  -0.021228
   18  C  2  X    0.021650  -0.038567   0.000605   0.009846   0.178762
   19  C  2  Y    0.031461  -0.068488  -0.088260   0.218096  -0.086092
   20  C  2  Z   -0.206597   0.408059  -0.023261   0.046224   0.010141
   21  C  2  S    0.007383   0.056418   0.400721  -1.070609  -0.158789
   22  C  2  X    0.023013  -0.071636  -0.259001   0.133634   0.539327
   23  C  2  Y    0.036585  -0.100389  -0.214514   0.413150  -0.306093
   24  C  2  Z   -0.260077   0.649563  -0.069241   0.099446   0.023321
   25  C  2 XX   -0.003870   0.000760   0.003156  -0.018085   0.008634
   26  C  2 YY   -0.001164   0.003437  -0.004442   0.027035  -0.004292
   27  C  2 ZZ    0.004562  -0.004918   0.000395   0.003210  -0.001786
   28  C  2 XY   -0.003819   0.002271   0.003667   0.002456  -0.027505
   29  C  2 XZ    0.028328   0.006010   0.000340  -0.001217  -0.002839
   30  C  2 YZ   -0.000253  -0.020243   0.000260   0.003741  -0.003417
   31  C  3  S   -0.000309   0.000753  -0.042019  -0.032879  -0.109662
   32  C  3  S   -0.000162   0.000740   0.078667   0.035925   0.180733
   33  C  3  X    0.020075   0.022844  -0.028002   0.001315   0.108052
   34  C  3  Y    0.037621   0.038826   0.143562   0.178160   0.211388
   35  C  3  Z   -0.339052  -0.400069   0.029296   0.006113   0.021871
   36  C  3  S    0.003922  -0.029313   0.484482   0.615619   1.579242
   37  C  3  X    0.020592   0.014273  -0.246245   0.142624   0.530936
   38  C  3  Y    0.036935   0.058031   0.442175   0.326535   0.602973
   39  C  3  Z   -0.313076  -0.568794   0.053309   0.017816   0.091652
   40  C  3 XX    0.002977  -0.001777  -0.016256   0.010101  -0.017213
   41  C  3 YY    0.000595   0.006345   0.006501  -0.010782  -0.012162
   42  C  3 ZZ   -0.004036  -0.004083   0.002939  -0.005985   0.002992
   43  C  3 XY    0.003842  -0.000493  -0.010255   0.015197   0.003696
   44  C  3 XZ   -0.027666   0.002158  -0.002755   0.003406  -0.000807
   45  C  3 YZ   -0.005980  -0.025123   0.000371  -0.000482  -0.002166
   46  O  4  S   -0.000315   0.001224   0.014508  -0.006293  -0.004940
   47  O  4  S    0.001235  -0.004281  -0.031687   0.004980  -0.016758
   48  O  4  X   -0.017711  -0.022381  -0.034786   0.041863  -0.027524
   49  O  4  Y   -0.040188  -0.025325  -0.079763  -0.009911  -0.068139
   50  O  4  Z    0.348690   0.242738  -0.019315   0.011084  -0.006908
   51  O  4  S    0.001473  -0.007994  -0.141792   0.097784   0.212900
   52  O  4  X   -0.017369  -0.024258  -0.022197   0.067650   0.043821
   53  O  4  Y   -0.037518  -0.034213  -0.156259  -0.050705  -0.066317
   54  O  4  Z    0.329597   0.308996  -0.028863   0.010924  -0.001610
   55  O  4 XX    0.000098   0.000115   0.002895  -0.008663  -0.005279
   56  O  4 YY   -0.000437   0.000902   0.000791  -0.001545  -0.010746
   57  O  4 ZZ    0.000771  -0.001885   0.003883  -0.003028  -0.004744
   58  O  4 XY   -0.000162   0.000251  -0.001774   0.000854   0.010894
   59  O  4 XZ    0.001170  -0.001319  -0.000049  -0.000437   0.001037
   60  O  4 YZ    0.002312  -0.006445  -0.000190   0.000133  -0.000409
   61  H  5  S    0.001768   0.000708  -0.043592  -0.048121   0.108660
   62  H  5  S   -0.002636  -0.018486  -1.183714  -0.802649   1.113663
   63  H  6  S   -0.001882  -0.004712  -0.084513   0.046169  -0.049441
   64  H  6  S   -0.009642  -0.047329  -1.285566   0.828089  -0.260055
   65  H  7  S   -0.003518  -0.005653   0.003949   0.114535  -0.016612
   66  H  7  S   -0.011146  -0.038521  -0.325707   1.321169  -0.253044
   67  H  8  S   -0.001179   0.004779   0.011060  -0.052910  -0.088622
   68  H  8  S   -0.006438   0.026326  -0.731951  -0.827513  -1.561028

                     21         22         23         24         25
                    0.1921     0.2632     0.3162     0.3516     0.5081
                     A          A          A          A          A   
    1  C  1  S   -0.050674  -0.019597   0.074350   0.024469   0.000903
    2  C  1  S    0.077770  -0.043763  -0.028830   0.027727  -0.027309
    3  C  1  X    0.168292   0.174690   0.108086   0.012248   0.099865
    4  C  1  Y   -0.235532   0.057892  -0.051161   0.215433   0.122620
    5  C  1  Z   -0.020024   0.032449   0.007676   0.037358  -0.625208
    6  C  1  S    0.612767   1.186770  -2.329344  -2.187863  -0.057164
    7  C  1  X    0.527726  -0.541670   2.380492   1.208545  -0.060933
    8  C  1  Y   -1.107279   0.158466   0.613149   1.693803  -0.089675
    9  C  1  Z   -0.120371  -0.040695   0.308118   0.382671   0.610760
   10  C  1 XX   -0.005154   0.014808   0.036438  -0.035471  -0.004076
   11  C  1 YY   -0.002268  -0.004546  -0.036028   0.024590  -0.009282
   12  C  1 ZZ   -0.003220  -0.008022   0.008197   0.007366   0.009755
   13  C  1 XY   -0.010527  -0.016758   0.027401   0.030501  -0.007296
   14  C  1 XZ   -0.001790  -0.000075   0.007653   0.000376   0.021060
   15  C  1 YZ   -0.000984  -0.002091  -0.005950   0.006265   0.021890
   16  C  2  S    0.092443   0.017335  -0.115726   0.024923  -0.005053
   17  C  2  S   -0.147718   0.060498   0.145151  -0.090987  -0.007683
   18  C  2  X   -0.010617  -0.051184   0.057694   0.295736   0.010463
   19  C  2  Y    0.177265  -0.117584   0.294169  -0.067963   0.073900
   20  C  2  Z    0.026978  -0.014707   0.051149   0.017439  -0.439399
   21  C  2  S   -1.579092  -1.267161   3.460983   0.712593   0.058292
   22  C  2  X   -0.135962   0.173184   0.602031   3.158404   0.095272
   23  C  2  Y    1.018303  -1.305280   1.913774   0.377705   0.007476
   24  C  2  Z    0.136621  -0.154485   0.364804   0.324992   0.214388
   25  C  2 XX    0.024896  -0.015277  -0.013486   0.024221  -0.004613
   26  C  2 YY   -0.012119   0.032558   0.013814  -0.013404   0.007121
   27  C  2 ZZ   -0.000277   0.002872  -0.003233  -0.009185  -0.007626
   28  C  2 XY   -0.008603  -0.021404   0.001697  -0.028937   0.001060
   29  C  2 XZ    0.001373  -0.004498  -0.000570  -0.001267  -0.014258
   30  C  2 YZ   -0.002885   0.001808   0.002429  -0.002466  -0.032291
   31  C  3  S   -0.006928   0.030803   0.074347  -0.065786   0.002992
   32  C  3  S    0.033530   0.002948  -0.026841   0.062923  -0.025266
   33  C  3  X    0.146057   0.191026  -0.064419   0.271454   0.036314
   34  C  3  Y   -0.168567   0.001464   0.176647  -0.367280   0.071435
   35  C  3  Z   -0.009366   0.009255   0.021873  -0.014534  -0.667855
   36  C  3  S   -0.276904  -0.784703  -1.745967   2.021942   0.077890
   37  C  3  X    0.049396   2.247761  -0.586193   0.393287  -0.083190
   38  C  3  Y   -0.525534   0.701514   0.347294  -1.855837  -0.108245
   39  C  3  Z   -0.059725   0.215343  -0.030961  -0.197660   0.703705
   40  C  3 XX    0.001804   0.007629   0.027746  -0.003905   0.006840
   41  C  3 YY   -0.008320  -0.000417  -0.001771  -0.013331  -0.008681
   42  C  3 ZZ    0.003170  -0.018135  -0.011349   0.015564   0.001836
   43  C  3 XY    0.009194   0.014240   0.006880   0.022659   0.000675
   44  C  3 XZ    0.000777   0.003887   0.003703   0.001210  -0.004505
   45  C  3 YZ   -0.000681   0.002705  -0.000161  -0.003651   0.020474
   46  O  4  S    0.004088  -0.106017  -0.036742   0.032858   0.000954
   47  O  4  S   -0.009430   0.101856   0.108152   0.044435   0.008545
   48  O  4  X   -0.038259   0.110410   0.168169  -0.052302   0.017100
   49  O  4  Y    0.099640   0.136703  -0.024511   0.014175  -0.003647
   50  O  4  Z    0.010861   0.021219   0.005707  -0.004022  -0.029033
   51  O  4  S   -0.089373   2.083894   0.336410  -1.007858  -0.062807
   52  O  4  X   -0.085898   0.645064   0.350032  -0.497231  -0.013317
   53  O  4  Y    0.119095   0.557431  -0.025652   0.058103  -0.005081
   54  O  4  Z    0.009488   0.098880   0.024881  -0.019002  -0.078885
   55  O  4 XX   -0.000693  -0.016767   0.003843   0.027625   0.003195
   56  O  4 YY   -0.001811  -0.047933   0.009240   0.017235   0.007744
   57  O  4 ZZ   -0.000604  -0.061287  -0.003665   0.050972  -0.003757
   58  O  4 XY   -0.004532   0.032778   0.007074  -0.006548   0.004122
   59  O  4 XZ   -0.000594   0.006558   0.002462  -0.001339  -0.037392
   60  O  4 YZ   -0.000167   0.003507   0.001899  -0.004700  -0.023288
   61  H  5  S   -0.010233  -0.051424  -0.129533   0.036452  -0.006144
   62  H  5  S    0.847855  -0.561149   0.196960  -1.174774  -0.006264
   63  H  6  S   -0.030490   0.043904  -0.019859  -0.189241  -0.000396
   64  H  6  S   -1.492370  -0.122236  -0.846837   0.301307  -0.010627
   65  H  7  S    0.019049   0.101878   0.038137  -0.031305  -0.005213
   66  H  7  S    1.690435  -0.765121   0.842262   0.184626   0.015606
   67  H  8  S   -0.026829   0.065739   0.048201  -0.043896  -0.013624
   68  H  8  S    0.608563  -0.050666   0.158071   1.199393   0.021589

                     26         27         28         29         30
                    0.5170     0.5585     0.5860     0.6197     0.6362
                     A          A          A          A          A   
    1  C  1  S    0.009414   0.005943  -0.000322  -0.034167   0.001480
    2  C  1  S   -0.364173  -0.263969   0.006060  -0.356795   0.000224
    3  C  1  X    0.491719   0.228054  -0.070654  -0.221081  -0.026386
    4  C  1  Y    0.349444  -0.209911  -0.112437   0.022220  -0.068304
    5  C  1  Z    0.147806  -0.007144   0.705111  -0.003522   0.451441
    6  C  1  S   -0.636036   0.079093   0.001639   0.815373  -0.026374
    7  C  1  X   -0.287139  -0.043100   0.078069   0.646219   0.053166
    8  C  1  Y   -0.400602   0.864974   0.128217   0.089638   0.125325
    9  C  1  Z   -0.135758   0.133094  -0.745627   0.055606  -0.883705
   10  C  1 XX   -0.031962   0.035262   0.006012  -0.090438  -0.004289
   11  C  1 YY   -0.012736  -0.075002  -0.001287  -0.068841   0.002883
   12  C  1 ZZ   -0.001414   0.001411  -0.004763   0.050664   0.003633
   13  C  1 XY   -0.020221  -0.005672   0.003810   0.035937  -0.004774
   14  C  1 XZ   -0.008846   0.000997  -0.031610  -0.009364   0.031761
   15  C  1 YZ   -0.006026  -0.015464   0.001110  -0.018094   0.001264
   16  C  2  S   -0.072400  -0.004532   0.001492  -0.015942  -0.000941
   17  C  2  S   -0.181437  -0.389935   0.013692  -0.357421  -0.011041
   18  C  2  X   -0.452581   0.417063  -0.019285  -0.169640   0.109508
   19  C  2  Y    0.070066  -0.303365  -0.010989   0.066458   0.130569
   20  C  2  Z    0.006416   0.014596   0.116905  -0.026526  -0.947412
   21  C  2  S    0.632566   0.227970   0.003996   0.061565   0.025508
   22  C  2  X    1.179607   0.260352   0.022521   0.413978  -0.169693
   23  C  2  Y    0.538685   0.307804   0.024661  -0.450116  -0.194314
   24  C  2  Z    0.169752   0.037921  -0.242412  -0.011113   1.533960
   25  C  2 XX   -0.105999  -0.105355  -0.002511  -0.023221  -0.005288
   26  C  2 YY   -0.042616  -0.010016  -0.003788  -0.119817   0.007646
   27  C  2 ZZ    0.050556   0.016711   0.011448   0.043073  -0.004934
   28  C  2 XY   -0.049570   0.016673  -0.009196   0.077088  -0.003115
   29  C  2 XZ   -0.022543  -0.008811   0.044572   0.004315   0.014631
   30  C  2 YZ   -0.019364  -0.002233   0.022504  -0.022201  -0.027012
   31  C  3  S    0.032062  -0.045786  -0.000558   0.004049   0.000287
   32  C  3  S   -0.323829  -0.479865   0.021106  -0.041041  -0.016994
   33  C  3  X   -0.199799  -0.304503   0.053103  -0.408571   0.009231
   34  C  3  Y    0.071434   0.040414   0.066383   0.253675  -0.007516
   35  C  3  Z    0.034775  -0.027594  -0.730147  -0.007577   0.223262
   36  C  3  S    0.962925   1.287928  -0.009781   0.075695  -0.025390
   37  C  3  X   -0.561805   0.428316  -0.097922   1.075557   0.018561
   38  C  3  Y   -0.357910  -0.564583  -0.090523  -0.752227   0.077566
   39  C  3  Z   -0.136593  -0.020160   1.022616   0.003738  -0.669940
   40  C  3 XX    0.063761  -0.067251   0.002667  -0.044404   0.005181
   41  C  3 YY   -0.052873  -0.109741  -0.001967   0.054341  -0.001640
   42  C  3 ZZ   -0.016376   0.041629   0.003778  -0.011627  -0.005562
   43  C  3 XY   -0.003314   0.073536  -0.002930  -0.047878   0.010502
   44  C  3 XZ    0.007016   0.001873  -0.003456  -0.009866  -0.021775
   45  C  3 YZ   -0.008928  -0.014577   0.023087   0.006478  -0.015676
   46  O  4  S    0.018009   0.025440   0.000697  -0.002357  -0.000926
   47  O  4  S    0.064038  -0.124259  -0.003048  -0.002408  -0.013056
   48  O  4  X    0.171250  -0.023382   0.006568  -0.192889   0.007633
   49  O  4  Y   -0.124622   0.036976   0.003554   0.155812   0.018707
   50  O  4  Z   -0.001031   0.003435  -0.102400  -0.001740  -0.032927
   51  O  4  S   -0.788254  -0.283690  -0.009033   0.278721   0.024907
   52  O  4  X   -0.243259  -0.310370   0.002840   0.025794  -0.000587
   53  O  4  Y   -0.195942  -0.035870   0.003299   0.121559  -0.015561
   54  O  4  Z   -0.024873  -0.024017  -0.090549   0.014997   0.135965
   55  O  4 XX   -0.017294  -0.036580   0.004835   0.023252  -0.011807
   56  O  4 YY    0.043596  -0.020691   0.002814   0.015554  -0.003448
   57  O  4 ZZ    0.045688   0.005479  -0.009178  -0.016733  -0.001695
   58  O  4 XY   -0.003995   0.006350   0.005941   0.028428  -0.007779
   59  O  4 XZ   -0.002231  -0.003338  -0.043832   0.005668   0.031316
   60  O  4 YZ    0.000119  -0.003410  -0.018651   0.005745  -0.010831
   61  H  5  S    0.071594  -0.373783  -0.005225  -0.222796   0.010494
   62  H  5  S    0.202916  -0.355052  -0.004901  -0.152241   0.006101
   63  H  6  S   -0.031436   0.138440   0.000655  -0.442846   0.011799
   64  H  6  S   -0.083614   0.055638  -0.003061  -0.241752   0.014617
   65  H  7  S   -0.195864   0.116716   0.011655  -0.446909   0.000704
   66  H  7  S    0.224087  -0.067517  -0.001705  -0.034779   0.008269
   67  H  8  S   -0.212296  -0.347593  -0.000161   0.333927  -0.012531
   68  H  8  S    0.130324   0.205784  -0.010881   0.244462   0.006380

                     31         32         33         34         35
                    0.6626     0.6749     0.8117     0.8263     0.8566
                     A          A          A          A          A   
    1  C  1  S   -0.064200   0.054574   0.020691  -0.003181  -0.001971
    2  C  1  S   -0.151873   0.282701  -0.474603   0.008103   0.251850
    3  C  1  X   -0.322162   0.180857   0.093650   0.433422   0.201654
    4  C  1  Y   -0.209349   0.125468  -0.079943  -0.902694  -0.342092
    5  C  1  Z   -0.057548   0.040872   0.000241  -0.099984  -0.035434
    6  C  1  S    0.421316  -0.989850   1.869602  -0.021878  -0.503665
    7  C  1  X    0.483115  -0.053926  -0.494621  -1.248835  -0.371458
    8  C  1  Y    0.289948   0.144377  -0.264340   2.442999   0.868149
    9  C  1  Z    0.071343   0.004260  -0.104422   0.264623   0.102632
   10  C  1 XX   -0.078108   0.116661  -0.007993  -0.069412  -0.042846
   11  C  1 YY   -0.107902   0.045097   0.000246   0.064757   0.066904
   12  C  1 ZZ    0.066915  -0.049832  -0.035236  -0.005061   0.016245
   13  C  1 XY   -0.065477  -0.012574   0.027025   0.031903   0.040011
   14  C  1 XZ   -0.024617   0.017708   0.006568  -0.002179   0.000843
   15  C  1 YZ   -0.039577   0.016919   0.008374   0.016096   0.012647
   16  C  2  S    0.050145  -0.025153  -0.025438   0.013195   0.001501
   17  C  2  S   -0.110589   0.393155  -0.514729   0.250294   0.006587
   18  C  2  X   -0.527910   0.071669   0.323959  -0.269836  -0.045180
   19  C  2  Y   -0.159826   0.272647   0.251294   0.215429   0.045969
   20  C  2  Z   -0.104132   0.025565   0.061201   0.007703   0.000353
   21  C  2  S    0.363099  -0.873549   1.442772  -0.838234   0.173205
   22  C  2  X    0.402056   0.763519  -2.083154   1.373660   0.244603
   23  C  2  Y    0.314320  -0.407654  -1.051804  -1.300347  -0.232422
   24  C  2  Z    0.148989   0.041476  -0.310945  -0.077025  -0.012646
   25  C  2 XX    0.067954  -0.017227  -0.008429   0.059992   0.051502
   26  C  2 YY    0.053563   0.000207  -0.108962  -0.032810  -0.047908
   27  C  2 ZZ   -0.049525   0.035332   0.014033   0.000583   0.003215
   28  C  2 XY    0.043577   0.016969  -0.028531  -0.005063  -0.010165
   29  C  2 XZ    0.019078  -0.005154  -0.007726   0.005650   0.004405
   30  C  2 YZ    0.022317  -0.004055  -0.025568  -0.005729  -0.010810
   31  C  3  S   -0.027710  -0.049646   0.001156   0.032949  -0.044356
   32  C  3  S    0.337511   0.388228  -0.469340  -0.181798   0.126062
   33  C  3  X   -0.176659  -0.821856   0.142308  -0.148612   0.067982
   34  C  3  Y   -0.430550  -0.273269  -0.737220  -0.094495   0.396686
   35  C  3  Z   -0.033314  -0.078650  -0.070773  -0.016491   0.044135
   36  C  3  S   -0.008871   0.608895  -0.311244   1.897849  -0.845311
   37  C  3  X   -0.184573   1.192804  -0.414859   0.396235   0.171426
   38  C  3  Y    0.876683  -0.338865   3.037909  -0.453816  -0.402673
   39  C  3  Z    0.028877   0.025932   0.312359  -0.027929  -0.029541
   40  C  3 XX   -0.021882  -0.042160  -0.162226   0.108659  -0.065644
   41  C  3 YY    0.015006   0.007884   0.026445   0.032350  -0.111136
   42  C  3 ZZ    0.023707   0.046098  -0.016687  -0.072094   0.093805
   43  C  3 XY   -0.076112  -0.108773  -0.044700   0.036180  -0.127992
   44  C  3 XZ   -0.011777  -0.017283  -0.016011   0.018693  -0.025931
   45  C  3 YZ   -0.006710  -0.013063   0.003441   0.016459  -0.032898
   46  O  4  S    0.016429   0.041025  -0.013188   0.008660  -0.004132
   47  O  4  S   -0.016593  -0.124659   0.146484  -0.168386   0.392032
   48  O  4  X   -0.069274  -0.303924  -0.222674   0.228834  -0.418897
   49  O  4  Y   -0.283752  -0.133243  -0.157968   0.138502  -0.315394
   50  O  4  Z   -0.030534  -0.033865  -0.035467   0.037363  -0.064013
   51  O  4  S    0.028078   0.083949   0.545979  -0.153499  -0.353894
   52  O  4  X   -0.015801  -0.302112   0.668358  -0.547319   0.778850
   53  O  4  Y   -0.090864  -0.064545   0.039260  -0.270337   0.491925
   54  O  4  Z   -0.004983  -0.021919   0.047072  -0.068466   0.104503
   55  O  4 XX    0.069954   0.081065   0.169106  -0.104490   0.148729
   56  O  4 YY    0.009588   0.010717   0.021415  -0.067282   0.194139
   57  O  4 ZZ   -0.016116  -0.042031   0.013832  -0.045995   0.131761
   58  O  4 XY    0.059698   0.110264  -0.016840  -0.023540   0.060900
   59  O  4 XZ    0.014882   0.021019   0.008849  -0.007225   0.007582
   60  O  4 YZ    0.006666   0.012940   0.000458  -0.004266   0.011691
   61  H  5  S   -0.432069   0.188935   0.194574   0.354679   0.205908
   62  H  5  S    0.048910  -0.023945  -0.217528  -1.806011  -0.722659
   63  H  6  S   -0.209551   0.342374   0.021591  -0.346779  -0.292926
   64  H  6  S   -0.230645  -0.057330  -0.077311   1.632331   0.856675
   65  H  7  S    0.339000   0.013500  -0.175745   0.000721  -0.117376
   66  H  7  S    0.017032   0.017228  -0.605104  -0.450363   0.005778
   67  H  8  S   -0.142357   0.052152   0.337577   0.185894  -0.588341
   68  H  8  S   -0.437989   0.220232  -2.191279  -0.214212   1.004026

                     36         37         38         39         40
                    0.8699     0.9058     0.9488     0.9873     1.0587
                     A          A          A          A          A   
    1  C  1  S    0.005250   0.029284   0.001125  -0.000446   0.015168
    2  C  1  S   -0.016125  -0.179570  -1.283923   0.071141   0.599085
    3  C  1  X    0.045154  -0.655680  -0.152652   0.009997  -0.017776
    4  C  1  Y   -0.030111  -0.283885  -0.133941   0.013726  -0.106376
    5  C  1  Z   -0.001072  -0.105823  -0.041506  -0.062681  -0.016553
    6  C  1  S   -0.623015  -0.889787   3.409679  -0.124456  -2.307491
    7  C  1  X    0.454212   1.692548  -0.082463   0.011663   0.422249
    8  C  1  Y   -0.392631   1.079338  -0.172658  -0.102087   0.694535
    9  C  1  Z   -0.016319   0.328219  -0.021814   0.075990   0.140983
   10  C  1 XX   -0.079730  -0.015260  -0.103359  -0.006989   0.024887
   11  C  1 YY    0.053824   0.074403  -0.011791   0.012162   0.031833
   12  C  1 ZZ    0.008116  -0.095778  -0.062293   0.005266   0.027279
   13  C  1 XY    0.009340  -0.154601  -0.009121   0.003065  -0.034736
   14  C  1 XZ   -0.007642  -0.015152  -0.003830   0.023344  -0.007562
   15  C  1 YZ    0.009357   0.017336   0.007559  -0.018344  -0.002434
   16  C  2  S   -0.036182   0.013056  -0.014135  -0.001526  -0.029536
   17  C  2  S    0.521521  -0.072689  -0.399617  -0.047171  -0.836814
   18  C  2  X    0.083968  -0.453494   0.228032   0.007190   0.000224
   19  C  2  Y   -0.958538  -0.176252   0.084816  -0.016211   0.001594
   20  C  2  Z   -0.136233  -0.068368   0.038376   0.043224  -0.008018
   21  C  2  S   -0.263088   0.125655   1.016989   0.175659   2.451433
   22  C  2  X   -0.634793   2.575018  -1.768074  -0.155028   0.637247
   23  C  2  Y    2.838148   0.486718  -0.118587   0.053924   0.325060
   24  C  2  Z    0.373292   0.302053  -0.184675   0.060861   0.111881
   25  C  2 XX    0.131002   0.005986  -0.019167  -0.001118  -0.048561
   26  C  2 YY   -0.105382   0.003967  -0.017566   0.005498  -0.104835
   27  C  2 ZZ    0.073592  -0.003634  -0.003701  -0.012074   0.034359
   28  C  2 XY   -0.007327   0.097153  -0.089190   0.005114   0.054469
   29  C  2 XZ    0.003594   0.016281  -0.015436   0.001451   0.001633
   30  C  2 YZ   -0.033260   0.011376  -0.014788  -0.047043  -0.017251
   31  C  3  S    0.016473  -0.017958   0.016762   0.001760   0.011949
   32  C  3  S    0.309929  -0.822050   1.173323   0.030548   0.397128
   33  C  3  X    0.012453  -0.111215   0.081145  -0.016892  -0.035505
   34  C  3  Y   -0.153280   0.140239   0.118617  -0.024455   0.209052
   35  C  3  Z   -0.021437   0.005326   0.016295   0.101356   0.015656
   36  C  3  S   -1.584392   2.661862  -3.401891  -0.176234  -1.171974
   37  C  3  X   -0.904211   0.871978  -0.717552   0.004690   0.178545
   38  C  3  Y    0.348603  -1.299244   0.468666   0.194962  -1.107632
   39  C  3  Z   -0.027471  -0.099874   0.015265  -0.549857  -0.093535
   40  C  3 XX   -0.045030  -0.056629   0.113542  -0.001623  -0.094162
   41  C  3 YY    0.076568  -0.058243   0.009637   0.001364   0.132619
   42  C  3 ZZ   -0.005792   0.003071   0.024948   0.002067   0.010886
   43  C  3 XY   -0.015271  -0.008266   0.019583   0.004689   0.080971
   44  C  3 XZ   -0.006838  -0.005878   0.008971   0.030349  -0.002532
   45  C  3 YZ    0.009257  -0.010788  -0.000313  -0.010791   0.018662
   46  O  4  S   -0.000264   0.001946  -0.002022  -0.001017  -0.000023
   47  O  4  S    0.041357   0.203124  -0.169600  -0.012657   0.021895
   48  O  4  X    0.014575   0.010798   0.045579   0.083482   0.421458
   49  O  4  Y   -0.029444  -0.004781   0.035283   0.098420  -0.582189
   50  O  4  Z    0.003865  -0.028098   0.002461  -0.933619  -0.010641
   51  O  4  S   -0.054808  -0.751898   0.696698   0.077059  -0.006507
   52  O  4  X    0.064574  -0.133387   0.022281  -0.095516  -0.678181
   53  O  4  Y   -0.075215   0.141374  -0.131923  -0.145855   0.988039
   54  O  4  Z   -0.009400   0.040284  -0.009164   1.246111   0.026274
   55  O  4 XX    0.035182   0.014067  -0.026969   0.000805   0.090719
   56  O  4 YY    0.016248   0.046734  -0.017217  -0.000496  -0.065333
   57  O  4 ZZ   -0.021075   0.124984  -0.129641  -0.017699  -0.023336
   58  O  4 XY    0.018460   0.008835   0.013966   0.004806  -0.039017
   59  O  4 XZ    0.005942  -0.006003   0.007908  -0.022514   0.006777
   60  O  4 YZ    0.005778  -0.010553   0.015532  -0.020579  -0.007314
   61  H  5  S    0.101880   0.505751   0.390756   0.008698   0.025969
   62  H  5  S    0.083105  -1.073215  -1.020478   0.078028  -0.001754
   63  H  6  S    0.011340   0.601414   0.238306  -0.038697   0.116717
   64  H  6  S   -0.096863  -1.184225  -0.807157   0.041391   0.340539
   65  H  7  S   -0.659455  -0.024720   0.006191  -0.006208  -0.157521
   66  H  7  S    2.555019   0.341229  -0.298259   0.013964  -0.151903
   67  H  8  S    0.131026  -0.006349  -0.312212  -0.021771   0.128755
   68  H  8  S   -0.202699   0.368101   0.835800  -0.035867   0.778877

                     41         42         43         44         45
                    1.0902     1.1508     1.2625     1.3348     1.4379
                     A          A          A          A          A   
    1  C  1  S    0.003925   0.025138   0.014387   0.003780  -0.001596
    2  C  1  S   -0.369206   1.035957   0.199816   0.024686  -0.019339
    3  C  1  X    0.334665  -0.032262   0.182861   0.062788   0.011387
    4  C  1  Y   -0.159434  -0.142856   0.011944   0.015009   0.008601
    5  C  1  Z    0.006951  -0.025561   0.038261  -0.108543  -0.097284
    6  C  1  S   -0.941672  -4.194459  -3.206066  -0.714616   0.091099
    7  C  1  X   -0.888127   0.669591   1.645147   0.291352  -0.092446
    8  C  1  Y    2.045524   1.427344  -1.219973  -0.115515   0.043867
    9  C  1  Z    0.255974   0.285456  -0.023917   0.008463  -0.005794
   10  C  1 XX    0.067133   0.041464  -0.135028   0.012449   0.074066
   11  C  1 YY   -0.131618   0.036150   0.048246   0.079924  -0.007474
   12  C  1 ZZ    0.011644   0.035319   0.112154  -0.088199  -0.067686
   13  C  1 XY   -0.095896  -0.112510  -0.032361   0.046843   0.071834
   14  C  1 XZ   -0.000444  -0.015493   0.000031  -0.204497  -0.457899
   15  C  1 YZ   -0.027819  -0.011100   0.040384  -0.278053   0.003653
   16  C  2  S   -0.001396  -0.044965  -0.031903  -0.006475   0.001552
   17  C  2  S    0.123130  -1.294172  -0.765174  -0.136706   0.029555
   18  C  2  X   -0.141853  -0.190931   0.026902  -0.003208   0.018360
   19  C  2  Y    0.028511  -0.089732  -0.369813  -0.064593   0.029831
   20  C  2  Z   -0.003104  -0.025295  -0.047035  -0.027504  -0.157416
   21  C  2  S   -0.117527   5.839810   3.235146   0.632546  -0.143404
   22  C  2  X    2.470206   0.885323   0.051652   0.171096   0.015284
   23  C  2  Y    0.024365   0.517205   4.532821   0.885698  -0.081889
   24  C  2  Z    0.192504   0.156908   0.652187   0.185008   0.081266
   25  C  2 XX    0.020676   0.005780  -0.119036  -0.103662  -0.027824
   26  C  2 YY    0.016094  -0.122280   0.061064   0.038439  -0.143679
   27  C  2 ZZ    0.000282  -0.000213   0.043836   0.067974   0.171979
   28  C  2 XY   -0.035994   0.011278   0.021883  -0.068587  -0.071489
   29  C  2 XZ   -0.026514   0.000408  -0.106599   0.509851   0.106065
   30  C  2 YZ    0.007144  -0.023564   0.030195  -0.112592   0.542887
   31  C  3  S   -0.002255   0.024875   0.027544   0.005142   0.002550
   32  C  3  S    0.252909   0.538413   0.302649   0.075189   0.017415
   33  C  3  X    0.272155   0.179105  -0.147679  -0.020886  -0.004377
   34  C  3  Y    0.209672  -0.144127   0.073567   0.015655  -0.012131
   35  C  3  Z    0.054174  -0.008786  -0.018750   0.030409   0.109722
   36  C  3  S    0.435865  -1.428806  -2.178692  -0.394446   0.263650
   37  C  3  X   -0.416919  -1.378489  -2.066930  -0.422679  -0.118427
   38  C  3  Y   -2.187355   1.147344  -1.492637  -0.422986  -0.119432
   39  C  3  Z   -0.335315   0.046795  -0.319277  -0.019830  -0.202012
   40  C  3 XX   -0.036608   0.064400  -0.071227   0.035214  -0.028144
   41  C  3 YY    0.154488  -0.021695   0.039635  -0.055972  -0.047671
   42  C  3 ZZ   -0.046877  -0.008606   0.050861   0.027763   0.079427
   43  C  3 XY   -0.102981  -0.004365   0.076825   0.038494  -0.034202
   44  C  3 XZ    0.012099   0.000348   0.070515  -0.412874   0.328865
   45  C  3 YZ    0.008543  -0.008474  -0.071009   0.307771   0.182276
   46  O  4  S    0.007626   0.002418   0.039376   0.008251   0.008891
   47  O  4  S   -0.127182   0.149647   0.365124   0.050627   0.149873
   48  O  4  X   -0.294687  -0.109155  -0.182571  -0.048548   0.022263
   49  O  4  Y   -0.090842   0.435346   0.083353   0.014565   0.012961
   50  O  4  Z   -0.073254   0.057614   0.008990  -0.041029   0.021097
   51  O  4  S   -0.541478  -0.246815  -1.815925  -0.365326  -0.469387
   52  O  4  X    0.260390   0.323356  -0.128485  -0.008438  -0.149383
   53  O  4  Y    0.350715  -0.930723  -0.262688  -0.029623  -0.092102
   54  O  4  Z    0.136496  -0.108938  -0.029974  -0.066248   0.158784
   55  O  4 XX   -0.038865   0.010101   0.141600   0.014357   0.066721
   56  O  4 YY   -0.046862   0.106324   0.077166  -0.032675   0.055561
   57  O  4 ZZ    0.048595  -0.023554   0.160896   0.080535  -0.006161
   58  O  4 XY   -0.041402   0.047513   0.039368  -0.006751   0.043798
   59  O  4 XZ   -0.015673   0.013092   0.005962   0.026199  -0.213358
   60  O  4 YZ   -0.023278   0.018179  -0.044990   0.188479  -0.129790
   61  H  5  S   -0.396928  -0.133769   0.554186   0.088725  -0.017053
   62  H  5  S   -0.729190   0.103871   0.772008   0.108347  -0.014824
   63  H  6  S    0.519417   0.308375  -0.348959  -0.038351   0.015291
   64  H  6  S    0.612491   0.617322  -0.221446  -0.011829   0.031867
   65  H  7  S    0.041315  -0.319469   0.809275   0.156244  -0.012959
   66  H  7  S    0.024727  -0.470151   1.401737   0.285309  -0.011503
   67  H  8  S    0.570106  -0.113080   0.542496   0.136365   0.006274
   68  H  8  S    0.738924  -0.332013   0.781339   0.204632   0.029354

                     46         47         48         49         50
                    1.5448     1.5450     1.6570     1.7672     1.7938
                     A          A          A          A          A   
    1  C  1  S    0.015265   0.000926   0.000715   0.007540   0.002278
    2  C  1  S    0.339292   0.022062   0.006595   0.067130  -0.024213
    3  C  1  X   -0.105504  -0.004312   0.002465  -0.070577   0.122301
    4  C  1  Y    0.089693  -0.009103  -0.004405  -0.052111  -0.066109
    5  C  1  Z   -0.010571   0.070269   0.035830  -0.016531  -0.002132
    6  C  1  S   -1.205006  -0.170593  -0.087756   0.839425  -0.319903
    7  C  1  X    1.363453   0.095469   0.046380  -0.265434   0.198872
    8  C  1  Y   -0.680314  -0.009901   0.018693  -0.399977  -0.074644
    9  C  1  Z    0.031956  -0.076632  -0.083489  -0.088439   0.013721
   10  C  1 XX    0.002992  -0.058068   0.046862  -0.001037   0.235753
   11  C  1 YY    0.153620   0.032211  -0.217677  -0.188100  -0.215125
   12  C  1 ZZ   -0.155069   0.024826   0.169966   0.204296  -0.065155
   13  C  1 XY   -0.012045  -0.047024  -0.034311   0.084104  -0.040072
   14  C  1 XZ   -0.027660   0.351294  -0.276211  -0.016738   0.011420
   15  C  1 YZ    0.044038  -0.113656   0.779809  -0.050878  -0.037941
   16  C  2  S   -0.024477  -0.002249  -0.000995  -0.000053  -0.019537
   17  C  2  S   -0.589124  -0.041411  -0.020695   0.143265   0.222420
   18  C  2  X   -0.001160  -0.008783  -0.003770  -0.107644  -0.266813
   19  C  2  Y   -0.141864  -0.019648  -0.010672   0.130547   0.008930
   20  C  2  Z   -0.031530   0.035030   0.030382   0.010312  -0.023010
   21  C  2  S    2.416536   0.188953   0.092203   0.144555   0.465195
   22  C  2  X   -0.622245   0.026796   0.014617  -1.182774   0.327891
   23  C  2  Y    0.945091   0.137864   0.035224  -0.862535   0.103120
   24  C  2  Z    0.105334   0.114260   0.212351  -0.220734   0.042634
   25  C  2 XX    0.087384  -0.000448   0.019280  -0.166766  -0.195711
   26  C  2 YY    0.004134   0.078645   0.017664  -0.116395   0.155213
   27  C  2 ZZ   -0.105610  -0.076121  -0.036284   0.352284   0.032855
   28  C  2 XY   -0.017327   0.034093   0.026704   0.197544   0.309753
   29  C  2 XZ    0.029387  -0.029269  -0.103813  -0.027144   0.026342
   30  C  2 YZ    0.063383  -0.251656  -0.066588  -0.067621   0.052693
   31  C  3  S   -0.017326   0.000608  -0.000273   0.014288  -0.017083
   32  C  3  S   -0.101438   0.008494   0.004424   0.389580   0.168022
   33  C  3  X   -0.046268  -0.014742  -0.002068   0.238294   0.085436
   34  C  3  Y   -0.039202  -0.016290  -0.004179  -0.178631   0.070609
   35  C  3  Z   -0.004191   0.155029   0.033892  -0.002739   0.012492
   36  C  3  S   -3.583209  -0.058680  -0.058441  -2.389615  -0.160629
   37  C  3  X    1.430880  -0.068024   0.013965   0.625631  -0.266874
   38  C  3  Y    1.894129  -0.027174   0.028144   1.857679   0.778082
   39  C  3  Z    0.295876  -0.107784  -0.188558   0.255540   0.067164
   40  C  3 XX   -0.026032  -0.023294   0.025174  -0.187057  -0.323933
   41  C  3 YY    0.073440  -0.105702  -0.042657  -0.207892   0.401585
   42  C  3 ZZ   -0.090325   0.129612   0.016510   0.457702  -0.046421
   43  C  3 XY   -0.203218  -0.047792   0.007655   0.115117   0.219512
   44  C  3 XZ    0.017946   0.203717  -0.232958  -0.021137   0.004897
   45  C  3 YZ    0.021514   0.564014   0.245574  -0.080919   0.070519
   46  O  4  S   -0.095006   0.001178  -0.000967  -0.045253  -0.006605
   47  O  4  S   -1.647824   0.013110  -0.019891  -0.788317  -0.151500
   48  O  4  X   -0.213437  -0.012081  -0.001910  -0.048365  -0.164618
   49  O  4  Y   -0.142021  -0.009611   0.002885   0.009547   0.193522
   50  O  4  Z   -0.015939   0.103522  -0.041852   0.002525   0.010903
   51  O  4  S    5.366256  -0.064152   0.056305   2.953633   0.438121
   52  O  4  X    1.580543  -0.011053   0.015563   0.873886   0.351856
   53  O  4  Y    0.765722  -0.019178  -0.001168   0.258380  -0.297360
   54  O  4  Z    0.172274   0.060923   0.078815   0.072867  -0.010727
   55  O  4 XX   -0.509692   0.054571   0.006689  -0.381892   0.395272
   56  O  4 YY   -0.166233  -0.000106  -0.054608  -0.481083  -0.221356
   57  O  4 ZZ   -0.502339  -0.044837   0.034858   0.389837  -0.269582
   58  O  4 XY   -0.161941   0.054033  -0.005678   0.210161  -0.355990
   59  O  4 XZ   -0.036472  -0.466099  -0.136169  -0.031221   0.010629
   60  O  4 YZ    0.010068  -0.010983   0.297698  -0.118518  -0.017358
   61  H  5  S    0.194998   0.017794   0.006067   0.204139   0.268873
   62  H  5  S    0.288838   0.027711   0.003713   0.049667  -0.055546
   63  H  6  S   -0.212987  -0.008301  -0.002458   0.009126  -0.195690
   64  H  6  S   -0.510317  -0.015961  -0.002422  -0.023961  -0.028925
   65  H  7  S    0.037944   0.008649   0.008432  -0.128846  -0.149755
   66  H  7  S    0.122296   0.042160   0.016971  -0.308354   0.090636
   67  H  8  S   -0.067056   0.011541  -0.000679   0.017408  -0.553710
   68  H  8  S   -0.348325   0.020613   0.006690  -0.471725  -0.131838

                     51         52         53         54         55
                    1.8441     1.9055     1.9870     2.0503     2.1396
                     A          A          A          A          A   
    1  C  1  S    0.000834   0.023489  -0.017516   0.015625  -0.006892
    2  C  1  S    0.008535   0.064758  -0.203505   0.316618  -0.062044
    3  C  1  X   -0.006378  -0.051393   0.145728  -0.255570   0.023220
    4  C  1  Y   -0.001340   0.109408   0.221069  -0.037361   0.012098
    5  C  1  Z    0.009019   0.011815   0.047583  -0.029079  -0.018519
    6  C  1  S    0.003832  -0.743796  -0.149568   0.140246   0.293188
    7  C  1  X    0.008446  -0.099571   0.225669   0.191018   0.030051
    8  C  1  Y   -0.015021   0.218943  -0.320493   0.173465  -0.010437
    9  C  1  Z   -0.044991   0.024385  -0.026086   0.060433  -0.202373
   10  C  1 XX   -0.029396  -0.323795  -0.071475  -0.471986  -0.064630
   11  C  1 YY    0.069951  -0.077145   0.337231   0.482865   0.130861
   12  C  1 ZZ   -0.039010   0.413632  -0.391707   0.151524  -0.053297
   13  C  1 XY    0.009750   0.363904   0.188370  -0.280293  -0.234907
   14  C  1 XZ    0.154774  -0.022775   0.056705  -0.152689   0.465046
   15  C  1 YZ   -0.277741  -0.051377   0.145212   0.032512   0.117257
   16  C  2  S    0.000835   0.024457  -0.034890   0.004574   0.000580
   17  C  2  S    0.003156   0.181964  -0.452027   0.340335   0.074571
   18  C  2  X    0.003073  -0.051076  -0.081277   0.011927   0.007872
   19  C  2  Y    0.013436   0.124156   0.004119   0.251249   0.034712
   20  C  2  Z   -0.058421   0.015504  -0.009902   0.035761   0.083609
   21  C  2  S   -0.003761  -0.786121   1.654177   0.283039  -0.016745
   22  C  2  X   -0.042960   0.817542  -0.543281  -0.819152  -0.269691
   23  C  2  Y   -0.036198   0.226330   1.010240  -0.416587  -0.024539
   24  C  2  Z    0.136087   0.108632   0.111873  -0.163199   0.356771
   25  C  2 XX    0.038126   0.204351   0.451974  -0.062296   0.019871
   26  C  2 YY   -0.112560  -0.621292  -0.267992   0.001310  -0.207439
   27  C  2 ZZ    0.077105   0.401135  -0.250762   0.206397   0.211309
   28  C  2 XY    0.016225   0.108146   0.086736  -0.528589  -0.053575
[...]

          ATOMIC WEIGHTS (AMU)

    1     C                12.00000
    2     C                12.00000
    3     C                12.00000
    4     O                15.99491
    5     H                 1.00782
    6     H                 1.00782
    7     H                 1.00782
    8     H                 1.00782

 MODES    1 TO    6 ARE TAKEN AS ROTATIONS AND TRANSLATIONS.

 ANALYZING SYMMETRY OF NORMAL MODES...

     FREQUENCIES IN CM**-1, IR INTENSITIES IN DEBYE**2/AMU-ANGSTROM**2,
     REDUCED MASSES IN AMU.

                            1           2           3           4           5
       FREQUENCY:         9.79        6.82        0.04        0.01        0.06  
        SYMMETRY:         A           A           A           A           A   
    REDUCED MASS:      2.19316     4.71054     6.97591     6.99465     7.02816
    IR INTENSITY:      0.09995     0.08343     0.00000     0.00000     0.00001

  1   C            X  0.01290143  0.02961690  0.09125144  0.09645068  0.01458305
                   Y  0.01352389 -0.16548825 -0.08594078  0.06956719  0.07679154
                   Z -0.13963706 -0.00868053  0.04843555 -0.06153927  0.10763285
  2   C            X -0.00782637 -0.03359243  0.09104485  0.09662206  0.01463060
                   Y -0.01628277 -0.06089312 -0.08562509  0.06931477  0.07630815
                   Z  0.06895952 -0.00886482  0.04850955 -0.06163373  0.10896420
  3   C            X  0.00490577  0.02772097  0.09140245  0.09640916  0.01449358
                   Y  0.00685185  0.05783510 -0.08494903  0.06891266  0.07603519
                   Z -0.05791244  0.00761171  0.04662084 -0.06104926  0.10863454
  4   O            X -0.01017790 -0.02496000  0.09120512  0.09655569  0.01455422
                   Y -0.00709778  0.15589538 -0.08457692  0.06864831  0.07564945
                   Z  0.12293054  0.00853278  0.04658764 -0.06110064  0.10980578
  5   H            X  0.04043708  0.12797969  0.09170134  0.09614583  0.01444563
                   Y  0.05425654 -0.16596366 -0.08571731  0.06948598  0.07699360
                   Z -0.40972242  0.00358689  0.04697374 -0.06102730  0.10626854
  6   H            X  0.00363248 -0.01365738  0.09097463  0.09660321  0.01468340
                   Y -0.00047252 -0.25378493 -0.08642683  0.06985661  0.07700754
                   Z -0.05083216 -0.02059088  0.04980309 -0.06195887  0.10784672
  7   H            X -0.03433219 -0.13187717  0.09059357  0.09691879  0.01477457
                   Y -0.05646846 -0.05823227 -0.08583639  0.06938718  0.07610227
                   Z  0.33983511 -0.02090110  0.04994643 -0.06213722  0.11033699
  8   H            X  0.03004362  0.12886983  0.09187497  0.09609617  0.01432400
                   Y  0.03947008  0.05197050 -0.08479789  0.06886613  0.07621666
                   Z -0.33908444  0.01961856  0.04517473 -0.06053700  0.10719434

 TRANS. SAYVETZ    X -0.00293238 -0.00210170  5.11120437  5.40696492  0.81596357
                   Y -0.02733915  0.04163355 -4.77643965  3.87132705  4.26834171
                   Z -0.04021879 -0.00115219  2.66135609 -3.43554899  6.09413690
               TOTAL  0.04871939  0.04170248  7.48475799  7.48501434  7.48485418

   ROT. SAYVETZ    X -6.02989955  1.78495368 -0.00906378  0.00191383 -0.03994387
                   Y 11.15589274  1.58232446 -0.12869091  0.03236081  0.10454793
                   Z  0.08322308-20.53523590 -0.08996921  0.05994838  0.06579934
               TOTAL 12.68150454 20.67330946  0.15728306  0.06815198  0.12982810

                            6           7           8           9          10
       FREQUENCY:         5.25      173.98      320.62      571.13      611.32  
        SYMMETRY:         A           A           A           A           A   
    REDUCED MASS:      2.97374     3.45946     2.69383     4.50703     1.20769
    IR INTENSITY:      0.01895     0.09402     0.22109     0.13573     0.17490

  1   C            X  0.01144304 -0.01274956  0.08202734 -0.12557288  0.01910171
                   Y  0.00569249 -0.01491583 -0.07249019 -0.02411606  0.00205782
                   Z -0.11472792  0.10260109 -0.00326123 -0.01268148  0.01602312
  2   C            X  0.00768068  0.01035031 -0.04480309 -0.09004845  0.02440293
                   Y  0.01568483  0.01734436  0.13120759 -0.02602489  0.02022079
                   Z -0.12704963 -0.12603713  0.01729577 -0.02512788 -0.10730816
  3   C            X -0.00800052  0.00949743 -0.06621128  0.06278260 -0.01228952
                   Y -0.01189248  0.01687622  0.08403560  0.09066073 -0.01795119
                   Z  0.11229334 -0.13003764  0.00242148  0.02248555  0.02389158
  4   O            X -0.00821975 -0.00458028  0.02616387  0.14884468 -0.02470566
                   Y -0.01148749 -0.01472701 -0.09725218 -0.03633331  0.00476837
                   Z  0.11258574  0.12007056 -0.01020748  0.00466270 -0.00148172
  5   H            X  0.00114511 -0.02361134  0.34141244 -0.22841077  0.08303973
                   Y -0.02249719 -0.02870483 -0.07252839 -0.01256080  0.07281657
                   Z  0.07296295  0.19396292  0.01524089 -0.10310044 -0.45057909
  6   H            X  0.02521561 -0.02445285 -0.02994008 -0.09388416 -0.04374260
                   Y  0.02423913 -0.03195916 -0.30428175  0.05235161 -0.09638737
                   Z -0.28846652  0.22736599 -0.04413575  0.09407871  0.57620369
  7   H            X  0.01746338  0.01681902 -0.15936593 -0.24442565  0.01218208
                   Y  0.04322856  0.02515111  0.13070264 -0.02977012 -0.04293776
                   Z -0.31217600 -0.17873928  0.01472222  0.03403570  0.31235693
  8   H            X -0.01917665  0.01948113 -0.22219460  0.02436584 -0.03108164
                   Y -0.03378062  0.03924431  0.08976673  0.08411979 -0.06069039
                   Z  0.29901660 -0.32065031 -0.01979651  0.08343057  0.38802121

 TRANS. SAYVETZ    X  0.02684455  0.00006097  0.00000784  0.00009385 -0.00002622
                   Y -0.05864580 -0.00013963 -0.00006806 -0.00003359  0.00000435
                   Z  0.01653601  0.00016210 -0.00003037 -0.00001306  0.00004456
               TOTAL  0.06658378  0.00022246  0.00007494  0.00010053  0.00005188

   ROT. SAYVETZ    X  2.03535390  0.04038553  0.04578015  0.00105835  0.00104541
                   Y 16.14947247 -0.04414740  0.03541743  0.00977006  0.00482502
                   Z  1.45680275  0.01267341 -0.00973766 -0.00382019  0.00068187
               TOTAL 16.34228872  0.06116044  0.05869445  0.01054362  0.00498384

                           11          12          13          14          15
       FREQUENCY:       928.68      992.10     1022.53     1043.17     1179.96  
        SYMMETRY:         A           A           A           A           A   
    REDUCED MASS:      1.57993     1.33779     1.63431     1.17412     2.01455
    IR INTENSITY:      0.51321     0.85303     0.19270     0.18923     0.86463

  1   C            X  0.09045945  0.01421429  0.00346851  0.00285949 -0.04492513
                   Y -0.05676376  0.02064598  0.00472738  0.00036535  0.02035459
                   Z  0.00082827 -0.14079637 -0.02786031 -0.00629052 -0.00150648
  2   C            X  0.05710902 -0.00308306 -0.01005894  0.00312126  0.06425875
                   Y -0.04774284 -0.00475731 -0.01763776  0.00151917 -0.11638777
                   Z -0.00228573  0.03169980  0.11492946 -0.01988320 -0.01098093
  3   C            X -0.07519397 -0.00184891  0.00761175  0.00465370 -0.08202614
                   Y  0.09440323 -0.00324945  0.01787662  0.01570561  0.13210940
                   Z  0.00800745  0.02905039 -0.13593432 -0.10665385  0.01365586
  4   O            X -0.02313070  0.00030790 -0.00168577 -0.00180170  0.01658819
                   Y -0.02103388  0.00082079 -0.00440604 -0.00333347 -0.01882824
                   Z -0.00450830 -0.00815869  0.03378004  0.02371729 -0.00193579
  5   H            X -0.41837091 -0.05942932  0.01589916 -0.04561612  0.17415254
                   Y -0.04660746 -0.08608235  0.02034958 -0.06459716  0.01605525
                   Z -0.05861537  0.56779173 -0.13074037  0.42486964  0.01950289
  6   H            X  0.33607732 -0.05920971 -0.01569723  0.03353207 -0.12824318
                   Y  0.44447999 -0.08799752 -0.02436305  0.04809274 -0.15668664
                   Z  0.10081831  0.60762631  0.15578861 -0.27065359 -0.03526475
  7   H            X -0.21907281 -0.00377826  0.04933216 -0.05176750  0.56854272
                   Y -0.04446120 -0.00175710  0.07380844 -0.08951596 -0.12997126
                   Z -0.03782233  0.01177634 -0.50042739  0.59217822  0.03188765
  8   H            X -0.19332201  0.00700456 -0.03494059 -0.03417748 -0.13124717
                   Y  0.10075522  0.01230549 -0.05900123 -0.05052675  0.13990429
                   Z -0.01080347 -0.10460436  0.52110051  0.45877709  0.00069378

 TRANS. SAYVETZ    X -0.00003891 -0.00000318 -0.00000019 -0.00000067  0.00000245
                   Y  0.00004503 -0.00001201 -0.00000105 -0.00000892  0.00003753
                   Z  0.00001681  0.00000959  0.00000573  0.00002700  0.00000981
               TOTAL  0.00006185  0.00001569  0.00000583  0.00002845  0.00003887

   ROT. SAYVETZ    X -0.00275154 -0.00215783 -0.00056880 -0.00042424  0.00062908
                   Y  0.00525891 -0.00447434  0.00012875  0.00085924 -0.00302520
                   Z -0.00136183 -0.00051079 -0.00046128  0.00040975 -0.00030907
               TOTAL  0.00608947  0.00499368  0.00074356  0.00104219  0.00310533

                           16          17          18          19          20
       FREQUENCY:      1308.35     1409.65     1474.72     1700.46     1804.07  
        SYMMETRY:         A           A           A           A           A   
    REDUCED MASS:      1.47678     1.19613     1.22585     4.01225     9.45377
    IR INTENSITY:      0.05364     0.13725     0.23413     0.05610     4.99616

  1   C            X -0.01242320  0.02516412 -0.01213943 -0.15529184  0.00822041
                   Y -0.10991333  0.00519391 -0.02205715 -0.08604810  0.00744820
                   Z -0.01744067  0.00319499 -0.00463432 -0.02791267  0.00203931
  2   C            X -0.04021082 -0.07571231 -0.09554297  0.16815935 -0.03321383
                   Y  0.11824321 -0.01564709 -0.01805095  0.06943037 -0.01293842
                   Z  0.01431227 -0.00976225 -0.01101125  0.02577108 -0.00452328
  3   C            X  0.00536240 -0.03382157  0.02442890  0.01453522  0.20393098
                   Y -0.01874168  0.04961268 -0.04295863  0.01282524  0.09002129
                   Z -0.00190797  0.00378491 -0.00288415  0.00186321  0.02359604
  4   O            X  0.01007981 -0.02012327  0.03396455 -0.03222129 -0.12993273
                   Y  0.00405755 -0.04948877  0.03703722 -0.01352729 -0.06766900
                   Z  0.00116626 -0.00707708  0.00637850 -0.00351743 -0.01596146
  5   H            X -0.40828270  0.30379417  0.48702145  0.26839157 -0.01922484
                   Y -0.11149465  0.01866066 -0.01236963 -0.10268604  0.00496969
                   Z -0.05768719  0.03230696  0.04569975  0.01116353 -0.00068799
  6   H            X  0.06640915  0.18037299  0.24946026 -0.01214533  0.00038036
                   Y  0.07364849  0.29679474  0.48047560  0.25020974 -0.01011923
                   Z  0.01804703  0.06150607  0.09701123  0.03769075 -0.00296199
  7   H            X  0.65394294  0.06755680  0.18532964 -0.14102259  0.08455054
                   Y  0.11644487 -0.02277542 -0.02527363  0.09826102 -0.00878229
                   Z  0.07648268  0.00133505  0.01234544  0.00251362  0.00555923
  8   H            X  0.09084749  0.77223995 -0.46951734  0.06986453 -0.13418874
                   Y -0.01904374  0.02649680 -0.04157754  0.01401499  0.08139609
                   Z  0.00460805  0.05030889 -0.03566562  0.00776165  0.00003279

 TRANS. SAYVETZ    X  0.00003595  0.00001688  0.00005118 -0.00000742 -0.00003007
                   Y -0.00002056  0.00002005  0.00000077 -0.00004500  0.00000537
                   Z -0.00000726  0.00000971 -0.00000799 -0.00000915 -0.00000004
               TOTAL  0.00004205  0.00002795  0.00005180  0.00004651  0.00003054

   ROT. SAYVETZ    X  0.00049890 -0.00088433 -0.00215779 -0.00040452  0.00036355
                   Y -0.00327801 -0.00221199  0.00237413  0.00007289 -0.00016247
                   Z  0.00104503  0.00060084 -0.00046942 -0.00028144 -0.00023356
               TOTAL  0.00347654  0.00245682  0.00324236  0.00049816  0.00046164

                           21          22          23          24
       FREQUENCY:      2899.38     3159.74     3196.00     3246.86  
        SYMMETRY:         A           A           A           A   
    REDUCED MASS:      1.08410     1.05973     1.09418     1.11516
    IR INTENSITY:      2.51950     0.14867     0.06374     0.19155

  1   C            X  0.00095247 -0.04598748 -0.00069912 -0.06028561
                   Y  0.00069239 -0.04620448  0.02055698  0.06963410
                   Z  0.00019386 -0.01156569  0.00300518  0.00442385
  2   C            X -0.00276715  0.00565010 -0.00375702  0.00192886
                   Y  0.00013629 -0.00615892 -0.08105477  0.01559508
                   Z -0.00021144 -0.00037928 -0.01242514  0.00251078
  3   C            X  0.00275407  0.00115586 -0.00277657  0.00042267
                   Y -0.07934608 -0.00100774 -0.00029464  0.00011752
                   Z -0.00913401 -0.00004352 -0.00020075  0.00003574
  4   O            X -0.00190500 -0.00053325  0.00085402 -0.00009241
                   Y -0.00029614 -0.00006663  0.00033735 -0.00006119
                   Z -0.00014798 -0.00004316  0.00008474 -0.00001132
  5   H            X  0.00625015 -0.01764346  0.00353024 -0.00091750
                   Y -0.01036318  0.77480129 -0.17536529 -0.51233570
                   Z -0.00087790  0.11506345 -0.02607300 -0.07734168
  6   H            X -0.00028416  0.49544054  0.06540117  0.69139120
                   Y  0.00640515 -0.25938393 -0.03318126 -0.33920633
                   Z  0.00096744  0.01082914  0.00154005  0.01868302
  7   H            X -0.00006305 -0.00032113  0.00371459 -0.00226175
                   Y -0.00675166  0.10975315  0.92250973 -0.15959224
                   Z -0.00088391  0.01635063  0.13735588 -0.02393811
  8   H            X  0.01314570 -0.00247295 -0.00007815  0.00306851
                   Y  0.95028626  0.01136542  0.00452678 -0.00409686
                   Z  0.11210886  0.00118678  0.00038513 -0.00021920

 TRANS. SAYVETZ    X  0.00000012  0.00001236  0.00000311  0.00000271
                   Y -0.00001677 -0.00000273 -0.00000128  0.00000642
                   Z -0.00000044  0.00000010  0.00000075 -0.00000060
               TOTAL  0.00001678  0.00001266  0.00000344  0.00000699

   ROT. SAYVETZ    X  0.00078172  0.00011446  0.00073101  0.00018276
                   Y -0.00000023  0.00035298  0.00002079  0.00040084
                   Z -0.00015063  0.00013563 -0.00006648  0.00014248
               TOTAL  0.00079610  0.00039508  0.00073432  0.00046300

 REFERENCE ON SAYVETZ CONDITIONS - A. SAYVETZ, J.CHEM.PHYS., 7, 383-389(1939).

 NOTE - THE MODES J,K ARE ORTHONORMALIZED ACCORDING TO
 SUM ON I   M(I) * (X(I,J)*X(I,K) + Y(I,J)*Y(I,K) + Z(I,J)*Z(I,K)) = DELTA(J,K)

  MODE FREQ(CM**-1)  SYMMETRY  RED. MASS  IR INTENS.
     1       9.785    A        2.193160    0.099946
     2       6.821    A        4.710539    0.083427
     3       0.038    A        6.975906    0.000003
     4       0.005    A        6.994653    0.000001
     5       0.065    A        7.028161    0.000006
     6       5.250    A        2.973735    0.018945
     7     173.980    A        3.459465    0.094018
     8     320.625    A        2.693827    0.221087
     9     571.133    A        4.507035    0.135733
    10     611.316    A        1.207689    0.174899
    11     928.685    A        1.579932    0.513214
    12     992.096    A        1.337790    0.853026
    13    1022.535    A        1.634315    0.192697
    14    1043.165    A        1.174123    0.189231
    15    1179.956    A        2.014548    0.864630
    16    1308.348    A        1.476784    0.053638
    17    1409.652    A        1.196135    0.137249
    18    1474.716    A        1.225847    0.234132
    19    1700.458    A        4.012249    0.056098
    20    1804.073    A        9.453770    4.996160
    21    2899.376    A        1.084104    2.519495
    22    3159.741    A        1.059735    0.148671
    23    3196.004    A        1.094175    0.063744
    24    3246.858    A        1.115160    0.191547

     -------------------------------
     THERMOCHEMISTRY AT T=  298.15 K
     -------------------------------

 USING IDEAL GAS, RIGID ROTOR, HARMONIC NORMAL MODE APPROXIMATIONS.
 P=  1.01325E+05 PASCAL.
 ALL FREQUENCIES ARE SCALED BY   1.00000
 THE MOMENTS OF INERTIA ARE (IN AMU*BOHR**2)
             37.68710           390.02829           427.61496
 THE ROTATIONAL SYMMETRY NUMBER IS  1.0
 THE ROTATIONAL CONSTANTS ARE (IN GHZ)
     47.84364     4.62297     4.21662
      7 -     24 VIBRATIONAL MODES ARE USED IN THERMOCHEMISTRY.
 THE HARMONIC ZERO POINT ENERGY IS (SCALED BY   1.000)
        0.061608 HARTREE/MOLECULE    13521.357888 CM**-1/MOLECULE 
       38.659541 KCAL/MOL              161.751519 KJ/MOL

               Q               LN Q
 ELEC.     1.00000E+00       0.000000
 TRANS.    1.64832E+07      16.617850
 ROT.      2.83800E+04      10.253440
 VIB.      2.62535E+00       0.965214
 TOT.      1.22812E+12      27.836504

              E         H         G         CV        CP        S
           KJ/MOL    KJ/MOL    KJ/MOL   J/MOL-K   J/MOL-K   J/MOL-K
 ELEC.      0.000     0.000     0.000     0.000     0.000     0.000
 TRANS.     3.718     6.197   -41.195    12.472    20.786   158.954
 ROT.       3.718     3.718   -25.418    12.472    12.472    97.723
 VIB.     165.754   165.754   159.359    32.435    32.435    21.449
 TOTAL    173.191   175.670    92.746    57.378    65.692   278.126
 VIB. THERMAL CORRECTION E(T)-E(0) = H(T)-H(0) =      4002.386 J/MOL

              E         H         G         CV        CP        S
         KCAL/MOL  KCAL/MOL  KCAL/MOL CAL/MOL-K CAL/MOL-K CAL/MOL-K
 ELEC.      0.000     0.000     0.000     0.000     0.000     0.000
 TRANS.     0.889     1.481    -9.846     2.981     4.968    37.991
 ROT.       0.889     0.889    -6.075     2.981     2.981    23.356
 VIB.      39.616    39.616    38.088     7.752     7.752     5.126
 TOTAL     41.394    41.986    22.167    13.714    15.701    66.474
 VIB. THERMAL CORRECTION E(T)-E(0) = H(T)-H(0) =       956.593 CAL/MOL
 ......END OF NORMAL COORDINATE ANALYSIS......
 STEP CPU TIME =     0.00 TOTAL CPU TIME =        785.9 (     13.1 MIN)
 TOTAL WALL CLOCK TIME=        823.1 SECONDS, CPU UTILIZATION IS    95.48%
               1080583  WORDS OF DYNAMIC MEMORY USED
 EXECUTION OF GAMESS TERMINATED NORMALLY Mon Oct  3 21:04:29 2022
 DDI: 263640 bytes (0.3 MB / 0 MWords) used by master data server.

 ----------------------------------------
 CPU timing information for all processes
 ========================================
 0: 781.367 + 4.568 = 785.935
 ----------------------------------------
 ddikick.x: exited gracefully.
----- accounting info -----
Files used on the master node chemcompute-node-0.novalocal were:
-rw-r--r--. 1 chemcomp chemcomp      985 Oct  3 20:50 /scratch/120448/460008.F05
-rw-rw-r--. 1 chemcomp chemcomp 70451200 Oct  3 21:04 /scratch/120448/460008.F10
-rw-rw-r--. 1 chemcomp chemcomp  4143136 Oct  3 21:04 /scratch/120448/460008.F22
Mon Oct  3 21:04:32 UTC 2022
0.094u 0.046s 13:46.46 0.0%	0+0k 8+208io 0pf+0w
Finishing Up...
Looking for IR data...
Looking for Raman data...
vibramans not found
Looking for thermodynamics data...
Looking for UV-Vis data...
chemcompute.org
{'UTCtimestamp': '2022-10-03T21:04:34.743037', 'cluster': 'jetstream2', 'clusterJobNumber': '120448', 'status': 'COMPLETE', 'nodeList': 'chemcompute-node-0'}
120448
